

     ************************************************************************
     *************** Dalton - An Electronic Structure Program ***************
     ************************************************************************

    This is output from DALTON 2015.0
   ----------------------------------------------------------------------------
    NOTE:
     
    Dalton is an experimental code for the evaluation of molecular
    properties using (MC)SCF, DFT, CI, and CC wave functions.
    The authors accept no responsibility for the performance of
    the code or for the correctness of the results.
     
    The code (in whole or part) is provided under a licence and
    is not to be reproduced for further distribution without
    the written permission of the authors or their representatives.
     
    See the home page "http://daltonprogram.org" for further information.
     
    If results obtained with this code are published,
    the appropriate citations would be both of:
     
       K. Aidas, C. Angeli, K. L. Bak, V. Bakken, R. Bast,
       L. Boman, O. Christiansen, R. Cimiraglia, S. Coriani,
       J. Cukras, P. Dahle, E. K. Dalskov, U. Ekstroem,
       T. Enevoldsen, J. J. Eriksen, P. Ettenhuber, B. Fernandez,
       L. Ferrighi, H. Fliegl, L. Frediani, K. Hald, A. Halkier,
       C. Haettig, H. Heiberg, T. Helgaker, A. C. Hennum,
       H. Hettema, E. Hjertenaes, S. Hoest, I.-M. Hoeyvik,
       M. F. Iozzi, B. Jansik, H. J. Aa. Jensen, D. Jonsson,
       P. Joergensen, M. Kaminski, J. Kauczor, S. Kirpekar,
       T. Kjaergaard, W. Klopper, S. Knecht, R. Kobayashi, H. Koch,
       J. Kongsted, A. Krapp, K. Kristensen, A. Ligabue,
       O. B. Lutnaes, J. I. Melo, K. V. Mikkelsen, R. H. Myhre,
       C. Neiss, C. B. Nielsen, P. Norman, J. Olsen,
       J. M. H. Olsen, A. Osted, M. J. Packer, F. Pawlowski,
       T. B. Pedersen, P. F. Provasi, S. Reine, Z. Rinkevicius,
       T. A. Ruden, K. Ruud, V. Rybkin, P. Salek, C. C. M. Samson,
       A. Sanchez de Meras, T. Saue, S. P. A. Sauer,
       B. Schimmelpfennig, K. Sneskov, A. H. Steindal,
       K. O. Sylvester-Hvid, P. R. Taylor, A. M. Teale,
       E. I. Tellgren, D. P. Tew, A. J. Thorvaldsen, L. Thoegersen,
       O. Vahtras, M. A. Watson, D. J. D. Wilson, M. Ziolkowski
       and H. Agren,
       "The Dalton quantum chemistry program system",
       WIREs Comput. Mol. Sci. 2013. (doi: 10.1002/wcms.1172)
    
    and
    
       Dalton, a Molecular Electronic Structure Program,
       Release DALTON2014.0 (2015), see http://daltonprogram.org
   ----------------------------------------------------------------------------

    Authors in alphabetical order (major contribution(s) in parenthesis):

  Kestutis Aidas,           Vilnius University,           Lithuania   (QM/MM)
  Celestino Angeli,         University of Ferrara,        Italy       (NEVPT2)
  Keld L. Bak,              UNI-C,                        Denmark     (AOSOPPA, non-adiabatic coupling, magnetic properties)
  Vebjoern Bakken,          University of Oslo,           Norway      (DALTON; geometry optimizer, symmetry detection)
  Radovan Bast,             KTH Stockholm,                Sweden      (DALTON installation and execution frameworks)
  Pablo Baudin,             University of Valencia,       Spain       (Cholesky excitation energies)
  Linus Boman,              NTNU,                         Norway      (Cholesky decomposition and subsystems)
  Ove Christiansen,         Aarhus University,            Denmark     (CC module)
  Renzo Cimiraglia,         University of Ferrara,        Italy       (NEVPT2)
  Sonia Coriani,            University of Trieste,        Italy       (CC module, MCD in RESPONS)
  Janusz Cukras,            University of Trieste,        Italy       (MChD in RESPONS)
  Paal Dahle,               University of Oslo,           Norway      (Parallelization)
  Erik K. Dalskov,          UNI-C,                        Denmark     (SOPPA)
  Thomas Enevoldsen,        Univ. of Southern Denmark,    Denmark     (SOPPA)
  Janus J. Eriksen,         Aarhus University,            Denmark     (Polarizable embedding model, TDA)
  Berta Fernandez,          U. of Santiago de Compostela, Spain       (doublet spin, ESR in RESPONS)
  Lara Ferrighi,            Aarhus University,            Denmark     (PCM Cubic response)
  Heike Fliegl,             University of Oslo,           Norway      (CCSD(R12))
  Luca Frediani,            UiT The Arctic U. of Norway,  Norway      (PCM)
  Bin Gao,                  UiT The Arctic U. of Norway,  Norway      (Gen1Int library)
  Christof Haettig,         Ruhr-University Bochum,       Germany     (CC module)
  Kasper Hald,              Aarhus University,            Denmark     (CC module)
  Asger Halkier,            Aarhus University,            Denmark     (CC module)
  Erik D. Hedegaard,        Univ. of Southern Denmark,    Denmark     (Polarizable embedding model, QM/MM)
  Hanne Heiberg,            University of Oslo,           Norway      (geometry analysis, selected one-electron integrals)
  Trygve Helgaker,          University of Oslo,           Norway      (DALTON; ABACUS, ERI, DFT modules, London, and much more)
  Alf Christian Hennum,     University of Oslo,           Norway      (Parity violation)
  Hinne Hettema,            University of Auckland,       New Zealand (quadratic response in RESPONS; SIRIUS supersymmetry)
  Eirik Hjertenaes,         NTNU,                         Norway      (Cholesky decomposition)
  Maria Francesca Iozzi,    University of Oslo,           Norway      (RPA)
  Brano Jansik              Technical Univ. of Ostrava    Czech Rep.  (DFT cubic response)
  Hans Joergen Aa. Jensen,  Univ. of Southern Denmark,    Denmark     (DALTON; SIRIUS, RESPONS, ABACUS modules, London, and much more)
  Dan Jonsson,              UiT The Arctic U. of Norway,  Norway      (cubic response in RESPONS module)
  Poul Joergensen,          Aarhus University,            Denmark     (RESPONS, ABACUS, and CC modules)
  Maciej Kaminski,          University of Warsaw,         Poland      (CPPh in RESPONS)
  Joanna Kauczor,           Linkoeping University,        Sweden      (Complex polarization propagator (CPP) module)
  Sheela Kirpekar,          Univ. of Southern Denmark,    Denmark     (Mass-velocity & Darwin integrals)
  Wim Klopper,              KIT Karlsruhe,                Germany     (R12 code in CC, SIRIUS, and ABACUS modules)
  Stefan Knecht,            ETH Zurich,                   Switzerland (Parallel CI and MCSCF)
  Rika Kobayashi,           Australian National Univ.,    Australia   (DIIS in CC, London in MCSCF)
  Henrik Koch,              NTNU,                         Norway      (CC module, Cholesky decomposition)
  Jacob Kongsted,           Univ. of Southern Denmark,    Denmark     (Polarizable embedding model, QM/MM)
  Andrea Ligabue,           University of Modena,         Italy       (CTOCD, AOSOPPA)
  Nanna H. List             Univ. of Southern Denmark,    Denmark     (Polarizable embedding model)
  Ola B. Lutnaes,           University of Oslo,           Norway      (DFT Hessian)
  Juan I. Melo,             University of Buenos Aires,   Argentina   (LRESC, Relativistic Effects on NMR Shieldings)
  Kurt V. Mikkelsen,        University of Copenhagen,     Denmark     (MC-SCRF and QM/MM)
  Rolf H. Myhre,            NTNU,                         Norway      (Cholesky, subsystems and ECC2)
  Christian Neiss,          Univ. Erlangen-Nuernberg,     Germany     (CCSD(R12))
  Christian B. Nielsen,     University of Copenhagen,     Denmark     (QM/MM)
  Patrick Norman,           Linkoeping University,        Sweden      (Cubic response and complex response in RESPONS)
  Jeppe Olsen,              Aarhus University,            Denmark     (SIRIUS CI/density modules)
  Jogvan Magnus H. Olsen,   Univ. of Southern Denmark,    Denmark     (Polarizable embedding model, QM/MM)
  Anders Osted,             Copenhagen University,        Denmark     (QM/MM)
  Martin J. Packer,         University of Sheffield,      UK          (SOPPA)
  Filip Pawlowski,          Kazimierz Wielki University,  Poland      (CC3)
  Morten N. Pedersen,       Univ. of Southern Denmark,    Denmark     (Polarizable embedding model)
  Thomas B. Pedersen,       University of Oslo,           Norway      (Cholesky decomposition)
  Patricio F. Provasi,      University of Northeastern,   Argentina   (Analysis of coupling constants in localized orbitals)
  Zilvinas Rinkevicius,     KTH Stockholm,                Sweden      (open-shell DFT, ESR)
  Elias Rudberg,            KTH Stockholm,                Sweden      (DFT grid and basis info)
  Torgeir A. Ruden,         University of Oslo,           Norway      (Numerical derivatives in ABACUS)
  Kenneth Ruud,             UiT The Arctic U. of Norway,  Norway      (DALTON; ABACUS magnetic properties and much more)
  Pawel Salek,              KTH Stockholm,                Sweden      (DALTON; DFT code)
  Claire C. M. Samson       University of Karlsruhe       Germany     (Boys localization, r12 integrals in ERI)
  Alfredo Sanchez de Meras, University of Valencia,       Spain       (CC module, Cholesky decomposition)
  Trond Saue,               Paul Sabatier University,     France      (direct Fock matrix construction)
  Stephan P. A. Sauer,      University of Copenhagen,     Denmark     (SOPPA(CCSD), SOPPA prop., AOSOPPA, vibrational g-factors)
  Bernd Schimmelpfennig,    Forschungszentrum Karlsruhe,  Germany     (AMFI module)
  Kristian Sneskov,         Aarhus University,            Denmark     (Polarizable embedding model, QM/MM)
  Arnfinn H. Steindal,      UiT The Arctic U. of Norway,  Norway      (parallel QM/MM, Polarizable embedding model)
  Casper Steinmann,         Univ. of Southern Denmark,    Denmark     (QFIT, Polarizable embedding model)
  K. O. Sylvester-Hvid,     University of Copenhagen,     Denmark     (MC-SCRF)
  Peter R. Taylor,          VLSCI/Univ. of Melbourne,     Australia   (Symmetry handling ABACUS, integral transformation)
  Andrew M. Teale,          University of Nottingham,     England     (DFT-AC, DFT-D)
  David P. Tew,             University of Bristol,        England     (CCSD(R12))
  Olav Vahtras,             KTH Stockholm,                Sweden      (triplet response, spin-orbit, ESR, TDDFT, open-shell DFT)
  David J. Wilson,          La Trobe University,          Australia   (DFT Hessian and DFT magnetizabilities)
  Hans Agren,               KTH Stockholm,                Sweden      (SIRIUS module, RESPONS, MC-SCRF solvation model)
 --------------------------------------------------------------------------------

     Date and time (Linux)  : Wed Jun 15 18:50:55 2016
     Host name              : copper                                  

 * Work memory size             :    64000000 =  488.28 megabytes.

 * Directories for basis set searches:
   1) /home/eric/development/programming_party/eric/project12/industrial_quantum_packages
   2) /home/eric/opt/apps/dalton/2015-i2013.sp1.1-mkl-omp/dalton/basis


Compilation information
-----------------------

 Who compiled             | eric
 Host                     | copper
 System                   | Linux-3.13.0-46-generic
 CMake generator          | Unix Makefiles
 Processor                | x86_64
 64-bit integers          | OFF
 MPI                      | OFF
 Fortran compiler         | /home/eric/opt/apps/intel/2013_sp1_update1/compose
                          | r_xe_2013_sp1.1.106/bin/intel64/ifort
 Fortran compiler version | ifort (IFORT) 14.0.1 20131008
 C compiler               | /home/eric/opt/apps/intel/2013_sp1_update1/compose
                          | r_xe_2013_sp1.1.106/bin/intel64/icc
 C compiler version       | icc (ICC) 14.0.1 20131008
 C++ compiler             | /home/eric/opt/apps/intel/2013_sp1_update1/compose
                          | r_xe_2013_sp1.1.106/bin/intel64/icpc
 C++ compiler version     | icpc (ICC) 14.0.1 20131008
 Static linking           | OFF
 Last Git revision        | d34efb170c481236ad60c789dea90a4c857c6bab
 Configuration time       | 2015-03-16 13:50:41.378554


   Content of the .dal input file
 ----------------------------------

BASIS                                             
STO-3G                                            
---                                               
---                                               
Atomtypes=2 Charge=0 Nosymmetry                   
Charge=8.0 Atoms=1                                
O   0.000000000000  -0.143225816552   0.0000000000
Charge=1.0 Atoms=2                                
H   1.638036840407   1.136548822547  -0.0000000000
H  -1.638036840407   1.136548822547  -0.0000000000
                                                  
**DALTON INPUT                                    
.RUN ALL                                          
**WAVE FUNCTIONS                                  
.HF                                               
**RESPONSE                                        
*LINEAR                                           
.DIPLEN                                           
.SINGLE RESIDUE                                   
.ABCHK                                            
.PRINT                                            
2000                                              
**END OF DALTON INPUT                             


       *******************************************************************
       *********** Output from DALTON general input processing ***********
       *******************************************************************

 --------------------------------------------------------------------------------
   Overall default print level:    0
   Print level for DALTON.STAT:    1

    HERMIT 1- and 2-electron integral sections will be executed
    "Old" integral transformation used (limited to max 255 basis functions)
    Wave function sections will be executed (SIRIUS module)
    Dynamic molecular response properties section will be executed (RESPONSE module)
    Static molecular property section will be executed (ABACUS module)
 --------------------------------------------------------------------------------


   ****************************************************************************
   *************** Output of molecule and basis set information ***************
   ****************************************************************************


    The two title cards from your ".mol" input:
    ------------------------------------------------------------------------
 1: ---                                                                     
 2: ---                                                                     
    ------------------------------------------------------------------------

  Atomic type no.    1
  --------------------
  Nuclear charge:   8.00000
  Number of symmetry independent centers:    1
  Number of basis sets to read;    2
  Basis set file used for this atomic type with Z =   8 :
     "/home/eric/opt/apps/dalton/2015-i2013.sp1.1-mkl-omp/dalton/basis/STO-3G"

  Atomic type no.    2
  --------------------
  Nuclear charge:   1.00000
  Number of symmetry independent centers:    2
  Number of basis sets to read;    2
  Basis set file used for this atomic type with Z =   1 :
     "/home/eric/opt/apps/dalton/2015-i2013.sp1.1-mkl-omp/dalton/basis/STO-3G"


                         SYMGRP: Point group information
                         -------------------------------

@    Point group: C1 


                                 Isotopic Masses
                                 ---------------

                           O          15.994915
                           H           1.007825
                           H           1.007825

                       Total mass:    18.010565 amu
                       Natural abundance:  99.730 %

 Center-of-mass coordinates (a.u.):    0.000000   -0.000000    0.000000


  Atoms and basis sets
  --------------------

  Number of atom types :    2
  Total number of atoms:    3

  Basis set used is "STO-3G" from the basis set library.

  label    atoms   charge   prim   cont     basis
  ----------------------------------------------------------------------
  O           1    8.0000    15     5      [6s3p|2s1p]                                        
  H           2    1.0000     3     1      [3s|1s]                                            
  ----------------------------------------------------------------------
  total:      3   10.0000    21     7
  ----------------------------------------------------------------------

  Threshold for neglecting AO integrals:  1.00D-12


  Cartesian Coordinates (a.u.)
  ----------------------------

  Total number of coordinates:    9
  O       :     1  x   0.0000000000    2  y  -0.1432258166    3  z   0.0000000000
  H       :     4  x   1.6380368404    5  y   1.1365488225    6  z   0.0000000000
  H       :     7  x  -1.6380368404    8  y   1.1365488225    9  z   0.0000000000


   Interatomic separations (in Angstrom):
   --------------------------------------

            O           H           H     
            ------      ------      ------
 O     :    0.000000
 H     :    1.100000    0.000000
 H     :    1.100000    1.733624    0.000000


  Max    interatomic separation is    1.7336 Angstrom (    3.2761 Bohr)
  between atoms    3 and    2, "H     " and "H     ".

  Min HX interatomic separation is    1.1000 Angstrom (    2.0787 Bohr)


  Bond distances (Angstrom):
  --------------------------

                  atom 1     atom 2       distance
                  ------     ------       --------
  bond distance:  H          O            1.100000
  bond distance:  H          O            1.100000


  Bond angles (degrees):
  ----------------------

                  atom 1     atom 2     atom 3         angle
                  ------     ------     ------         -----
  bond angle:     H          O          H            104.000




 Principal moments of inertia (u*A**2) and principal axes
 --------------------------------------------------------

   IA       0.820992          1.000000    0.000000    0.000000
   IB       1.514484          0.000000    1.000000    0.000000
   IC       2.335476          0.000000    0.000000    1.000000


 Rotational constants
 --------------------

@    The molecule is planar.

               A                   B                   C

         615571.0820         333697.1351         216392.2723 MHz
           20.533241           11.130938            7.218069 cm-1


@  Nuclear repulsion energy :    8.002367061811 Hartree


                     .---------------------------------------.
                     | Starting in Integral Section (HERMIT) |
                     `---------------------------------------'



 ***************************************************************************************
 ****************** Output from **INTEGRALS input processing (HERMIT) ******************
 ***************************************************************************************


 - Using defaults, no **INTEGRALS input found

 Default print level:        1

 * Nuclear model: Point charge

 Calculation of one- and two-electron Hamiltonian integrals.

 Center of mass  (bohr):      0.000000000000     -0.000000007073      0.000000000000
 Operator center (bohr):      0.000000000000      0.000000000000      0.000000000000
 Gauge origin    (bohr):      0.000000000000      0.000000000000      0.000000000000
 Dipole origin   (bohr):      0.000000000000      0.000000000000      0.000000000000


     ************************************************************************
     ************************** Output from HERINT **************************
     ************************************************************************


 Threshold for neglecting two-electron integrals:  1.00D-12
 HERMIT - Number of two-electron integrals written:         228 ( 56.2% )
 HERMIT - Megabytes written:                              0.007

 >>>> Total CPU  time used in HERMIT:   0.00 seconds
 >>>> Total wall time used in HERMIT:   0.01 seconds


                        .----------------------------------.
                        | End of Integral Section (HERMIT) |
                        `----------------------------------'



                   .--------------------------------------------.
                   | Starting in Wave Function Section (SIRIUS) |
                   `--------------------------------------------'


 *** Output from Huckel module :

     Using EWMO model:          T
     Using EHT  model:          F
     Number of Huckel orbitals each symmetry:    7

 EWMO - Energy Weighted Maximum Overlap - is a Huckel type method,
        which normally is better than Extended Huckel Theory.
 Reference: Linderberg and Ohrn, Propagators in Quantum Chemistry (Wiley, 1973)

 Huckel EWMO eigenvalues for symmetry :  1
          -20.683209      -1.522254      -0.771092      -0.695136      -0.616200
           -0.278569      -0.213441

 **********************************************************************
 *SIRIUS* a direct, restricted step, second order MCSCF program       *
 **********************************************************************

 
     Date and time (Linux)  : Wed Jun 15 18:50:55 2016
     Host name              : copper                                  

 Title lines from ".mol" input file:
     ---                                                                     
     ---                                                                     

 Print level on unit LUPRI =   2 is   0
 Print level on unit LUW4  =   2 is   5

@    Restricted, closed shell Hartree-Fock calculation.

@    Time-dependent Hartree-Fock calculation (random phase approximation).

 Initial molecular orbitals are obtained according to
 ".MOSTART EWMO  " input option

     Wave function specification
     ============================
@    Wave function type        >>> HF <<<
@    Number of closed shell electrons          10
@    Number of electrons in active shells       0
@    Total charge of the molecule               0

@    Spin multiplicity and 2 M_S                1         0
@    Total number of symmetries                 1 (point group: C1 )
@    Reference state symmetry                   1 (irrep name : A  )

     Orbital specifications
     ======================
@    Abelian symmetry species          All |    1
@                                          |  A  
                                       --- |  ---
@    Occupied SCF orbitals               5 |    5
@    Secondary orbitals                  2 |    2
@    Total number of orbitals            7 |    7
@    Number of basis functions           7 |    7

     Optimization information
     ========================
@    Number of configurations                 1
@    Number of orbital rotations             10
     ------------------------------------------
@    Total number of variables               11

     Maximum number of Fock   iterations      0
     Maximum number of DIIS   iterations     60
     Maximum number of QC-SCF iterations     60
     Threshold for SCF convergence     1.00D-05


 ***********************************************
 ***** DIIS acceleration of SCF iterations *****
 ***********************************************

 C1-DIIS algorithm; max error vectors =    8

 Iter      Total energy        Error norm    Delta(E)  DIIS dim.
 -----------------------------------------------------------------------------
     (Precalculated two-electron integrals are transformed to P-supermatrix elements.
      Threshold for discarding integrals :  1.00D-12 )
@  1    -74.8838784167        7.27281D-01   -7.49D+01    1
      Virial theorem: -V/T =      2.004387
@      MULPOP O      -0.47; H       0.24; H       0.24; 
 -----------------------------------------------------------------------------
@  2    -74.9390985821        1.79877D-01   -5.52D-02    2
      Virial theorem: -V/T =      2.010065
@      MULPOP O      -0.21; H       0.11; H       0.11; 
 -----------------------------------------------------------------------------
@  3    -74.9419417201        3.45651D-02   -2.84D-03    3
      Virial theorem: -V/T =      2.008195
@      MULPOP O      -0.26; H       0.13; H       0.13; 
 -----------------------------------------------------------------------------
@  4    -74.9420796210        1.94968D-03   -1.38D-04    4
      Virial theorem: -V/T =      2.008195
@      MULPOP O      -0.25; H       0.13; H       0.13; 
 -----------------------------------------------------------------------------
@  5    -74.9420799267        1.39275D-04   -3.06D-07    5
      Virial theorem: -V/T =      2.008167
@      MULPOP O      -0.25; H       0.13; H       0.13; 
 -----------------------------------------------------------------------------
@  6    -74.9420799311        2.22065D-05   -4.37D-09    6
      Virial theorem: -V/T =      2.008168
@      MULPOP O      -0.25; H       0.13; H       0.13; 
 -----------------------------------------------------------------------------
@  7    -74.9420799312        3.02314D-07   -1.07D-10    7

@ *** DIIS converged in   7 iterations !
@     Converged SCF energy, gradient:    -74.942079931208    3.02D-07
    - total time used in SIRFCK :              0.00 seconds


 *** SCF orbital energy analysis ***

 Number of electrons :   10
 Orbital occupations :    5

 Sym       Hartree-Fock orbital energies

1 A     -20.26289163    -1.20969738    -0.54796466    -0.43652721    -0.38758673
          0.47761871     0.58813927

    E(LUMO) :     0.47761871 au (symmetry 1)
  - E(HOMO) :    -0.38758673 au (symmetry 1)
  ------------------------------------------
    gap     :     0.86520543 au

 >>> Writing SIRIFC interface file

 >>>> CPU and wall time for SCF :       0.143       0.020


                       .-----------------------------------.
                       | >>> Final results from SIRIUS <<< |
                       `-----------------------------------'


@    Spin multiplicity:           1
@    Spatial symmetry:            1 ( irrep  A   in C1  )
@    Total charge of molecule:    0

@    Final HF energy:             -74.942079931208                 
@    Nuclear repulsion:             8.002367061811
@    Electronic energy:           -82.944446993019

@    Final gradient norm:           0.000000302314

 
     Date and time (Linux)  : Wed Jun 15 18:50:55 2016
     Host name              : copper                                  

File label for MO orbitals:  15Jun16   FOCKDIIS

 (Only coefficients >0.0100 are printed.)

 Molecular orbitals for symmetry species 1  (A  )
 ------------------------------------------------

    Orbital         1        2        3        4        5        6        7
   1 O   :1s    -0.9944   0.2392   0.0000  -0.0937   0.0000  -0.1116  -0.0000
   2 O   :1s    -0.0241  -0.8857  -0.0000   0.4796  -0.0000   0.6696   0.0000
   3 O   :2px    0.0000  -0.0000  -0.6073  -0.0000   0.0000   0.0000  -0.9192
   4 O   :2py   -0.0032  -0.0859   0.0000  -0.7474   0.0000   0.7385   0.0000
   5 O   :2pz   -0.0000   0.0000  -0.0000  -0.0000  -1.0000   0.0000  -0.0000
   6 H   :1s     0.0046  -0.1440  -0.4530  -0.3295   0.0000  -0.7098   0.7325
   7 H   :1s     0.0046  -0.1440   0.4530  -0.3295  -0.0000  -0.7098  -0.7325



 >>>> Total CPU  time used in SIRIUS :      0.44 seconds
 >>>> Total wall time used in SIRIUS :      0.07 seconds

 
     Date and time (Linux)  : Wed Jun 15 18:50:55 2016
     Host name              : copper                                  


                     .---------------------------------------.
                     | End of Wave Function Section (SIRIUS) |
                     `---------------------------------------'



                 .------------------------------------------------.
                 | Starting in Dynamic Property Section (RESPONS) |
                 `------------------------------------------------'


 ------------------------------------------------------------------------------
  RESPONSE  -  an MCSCF, MC-srDFT, DFT, and SOPPA response property program
 ------------------------------------------------------------------------------


 <<<<<<<<<< OUTPUT FROM RESPONSE INPUT PROCESSING >>>>>>>>>>




  Linear Response single residue calculation
 -------------------------------------------


    4 input options by user.

 Print level                                    : IPRPP  =2000
 Maximum number of iterations for eigenval.eqs. : MAXITP =  60
 Threshold for convergence of eigenvalue eqs.   : THCPP  = 1.000D-03
 Maximum iterations in optimal orbital algorithm: MAXITO =   5

 SET UP E(2) AND S(2) EXPLICITLY. ABCHK =T

 General print level in RESPONS is IPRRSP =      2000

 **** Output from RSPSYM ****

 I, LPPOP(I), PRPLBL(I)  (for excitations)

    1         T  XDIPLEN 
    2         T  YDIPLEN 
    3         T  ZDIPLEN 

 I, LLROP(I), PRPLBL(I)  (for linear response)

    1         F  XDIPLEN 
    2         F  YDIPLEN 
    3         F  ZDIPLEN 

 I, LC6OP(I), PRPLBL(I)  (for C6/C8)

    1         F  XDIPLEN 
    2         F  YDIPLEN 
    3         F  ZDIPLEN 

 I, AQROP(I), BQROP(I), CQROP(I), PRPLBL(I)  (for quadratic response)

    1         F         F         F  XDIPLEN 
    2         F         F         F  YDIPLEN 
    3         F         F         F  ZDIPLEN 

 I, ASMOP(I), BSMOP(I), PRPLBL(I)  (for second mom.)

    1         F         F  XDIPLEN 
    2         F         F  YDIPLEN 
    3         F         F  ZDIPLEN 

 I, ESROPS(I), ESROPT(I), PRPLBL(I) (for ESR prop.)

    1         F         F  XDIPLEN 
    2         F         F  YDIPLEN 
    3         F         F  ZDIPLEN 

 I, ACROP(I), BCROP(I), CCROP(I), DCROP(I), PRPLBL(I)  (for cubic response)

    1         F         F         F         F  XDIPLEN 
    2         F         F         F         F  YDIPLEN 
    3         F         F         F         F  ZDIPLEN 

 I, ATMOP(I), BTMOP(I), CTMOP(I), PRPLBL(I)  (for third mom.)

    1         F         F         F  XDIPLEN 
    2         F         F         F  YDIPLEN 
    3         F         F         F  ZDIPLEN 

 I, ATPOP(I), BTPOP(I), PRPLBL(I) (for cubic double res.)

    1         F         F  XDIPLEN 
    2         F         F  YDIPLEN 
    3         F         F  ZDIPLEN 

 NPRLBL=    3 labels in property calculations in RESPONS:

  I      PRPLBL(I), I=1,NPRLBL 
    1     XDIPLEN 
    2     YDIPLEN 
    3     ZDIPLEN 

 RSPSYM: number of property vectors :

 NGPPP(I) ,I=1,NSYM    3
 NGPLR(I) ,I=1,NSYM    0
 NGPC6(I) ,I=1,NSYM    0
 NAQROP(I),I=1,NSYM    0
 NBQROP(I),I=1,NSYM    0
 NCQROP(I),I=1,NSYM    0
 NASMOP(I),I=1,NSYM    0
 NBSMOP(I),I=1,NSYM    0
 NESRS(I) ,I=1,NSYM    0
 NESRT(I) ,I=1,NSYM    0
 NACROP(I),I=1,NSYM    0
 NBCROP(I),I=1,NSYM    0
 NCCROP(I),I=1,NSYM    0
 NDCROP(I),I=1,NSYM    0
 NATMOP(I),I=1,NSYM    0
 NBTMOP(I),I=1,NSYM    0
 NCTMOP(I),I=1,NSYM    0
 NATPOP(I),I=1,NSYM    0
 NBTPOP(I),I=1,NSYM    0

      1 Excitation energies are calculated for symmetry no.    1

      3 property residues are calculated with labels:

               XDIPLEN 
               YDIPLEN 
               ZDIPLEN 

  SYMMETRY   NO.CONV  NO.START NO.SIMULT

         1         1         1         1

 Integral transformation: Total CPU and WALL times (sec)       0.007       0.001


   SCF energy         :      -74.942079931208113
 -- inactive part     :      -82.944446993018886
 -- nuclear repulsion :        8.002367061810769

 NISHT,NASHT,NORBT,NBAST,NCREF,IREFSY     5     0     7     7     1     1

 **** RSPMC **** MO coefficients read from SIRIFC for symmetry    1

               Column   1     Column   2     Column   3     Column   4     Column   5     Column   6     Column   7
       1      -0.99443460     0.23915883     0.00000000    -0.09368322     0.00000000    -0.11163992    -0.00000000
       2      -0.02409701    -0.88573559    -0.00000000     0.47958589    -0.00000000     0.66957910     0.00000000
       3       0.00000000    -0.00000000    -0.60728483    -0.00000000     0.00000000     0.00000000    -0.91923428
       4      -0.00316157    -0.08589621     0.00000000    -0.74743140     0.00000000     0.73848860     0.00000000
       5      -0.00000000     0.00000000    -0.00000000    -0.00000000    -1.00000000     0.00000000    -0.00000000
       6       0.00459373    -0.14403956    -0.45299775    -0.32947117     0.00000000    -0.70984950     0.73246067
       7       0.00459373    -0.14403956     0.45299775    -0.32947117    -0.00000000    -0.70984950    -0.73246067
    ==== End of matrix output ====


                     ***************************************
                     *** RHF response calculation (TDHF) ***
                     ***************************************



 >>>>>>>>>> Linear response calculation
 >>>>>>>>>> Symmetry of excitation/property operator(s)    1  ( A  )

 Number of excitations of this symmetry            1
 Number of response properties of this symmetry    0
 Number of C6/C8 properties of this symmetry       0


 Perturbation symmetry.     KSYMOP:       1
 Perturbation spin symmetry.TRPLET:       F
 Orbital variables.         KZWOPT:      10
 Configuration variables.   KZCONF:       0
 Total number of variables. KZVAR :      10

 KZYWOP,KZYCON,KZYVAR:      20       0      20

 FOCK CORE MATRIX

     *** Block  1 ***

               Column   1     Column   2     Column   3     Column   4     Column   5     Column   6
       1     -20.26289163
       2      -0.00000036    -1.20969738
       3      -0.00000000    -0.00000000    -0.54796466
       4       0.00000056     0.00000000    -0.00000000    -0.43652721
       5       0.00000000    -0.00000000     0.00000000     0.00000000    -0.38758673
       6       0.00000008     0.00000000    -0.00000000     0.00000000     0.00000000     0.47761871
       7      -0.00000000     0.00000000    -0.00000000     0.00000000    -0.00000000    -0.00000000

               Column   7
       7       0.58813927
    ==== End of matrix output ====

 TOTAL FOCK  MATRIX

     *** Block  1 ***

               Column   1     Column   2     Column   3     Column   4     Column   5     Column   6
       1     -40.52578326    -0.00000072    -0.00000000     0.00000113     0.00000000     0.00000015
       2      -0.00000072    -2.41939476    -0.00000000     0.00000001    -0.00000000     0.00000000
       3      -0.00000000    -0.00000000    -1.09592931    -0.00000000     0.00000000    -0.00000000
       4       0.00000113     0.00000001    -0.00000000    -0.87305442     0.00000000     0.00000000
       5       0.00000000    -0.00000000     0.00000000     0.00000000    -0.77517345     0.00000000

               Column   7
       1      -0.00000000
       2       0.00000000
       3      -0.00000001
       4       0.00000000
       5      -0.00000000
    ==== End of matrix output ====
  DIAGONAL ORBITAL PART OF E(2) 

               Column   1
       1      41.48112068
       2      41.70216180
       3       3.37473218
       4       3.59577330
       5       2.05126673
       6       2.27230785
       7       1.82839183
       8       2.04943295
       9       1.73051087
      10       1.95155199
    ==== End of matrix output ====
  DIAGONAL ORBITAL PART OF S(2)

               Column   1
       1       2.00000000
       2       2.00000000
       3       2.00000000
       4       2.00000000
       5       2.00000000
       6       2.00000000
       7       2.00000000
       8       2.00000000
       9       2.00000000
      10       2.00000000
    ==== End of matrix output ====

 FOCK MATRIX CONTRIBUTION TO DIAGONAL ORBITAL PART OF E[2]

 (FOCK TYPE DECOUPLING OF TWO ELECTRON DENSITY MATRIX USED)

     Orbital operator symmetry = 1
     (only elements abs greater than 1.0D-01 times max abs value)

      Index(r,s)     r  s      operator value
      ----------    -- --      --------------
              1      1  6       41.4811206775
              2      1  7       41.7021617972

        8 elements with absolute value less than 4.17D+00 not printed.

               Column   1
       1      41.48112068
       2      41.70216180
       3       3.37473218
       4       3.59577330
       5       2.05126673
       6       2.27230785
       7       1.82839183
       8       2.04943295
       9       1.73051087
      10       1.95155199
    ==== End of matrix output ====

 DIAGONAL ORBITAL PART OF S[2]

               Column   1
       1       2.00000000
       2       2.00000000
       3       2.00000000
       4       2.00000000
       5       2.00000000
       6       2.00000000
       7       2.00000000
       8       2.00000000
       9       2.00000000
      10       2.00000000
    ==== End of matrix output ====

 >>> IN RSPPP:
  THCPP,MAXRM   1.000000000000000E-003         600
  KSYMOP,NGPPP(KSYMOP)            1           3
  LWRK ,LWRK1     63999816    62918016
  KEXCNV,NSIM,LWRK2            1           1     1082039



 <<< EXCITATION ENERGIES AND TRANSITION MOMENT CALCULATION (MCTDHF) >>>

 Operator symmetry = 1  ( A  ); triplet =   F

  KLIDEN,KUSE,KMAXVE,LBINTM,NORBT,NASHT,KZYVAR,LWRK 
           1         154         285          28           7           0
          20    62918016
  LACIMX           0

 MAXIMUM NUMBER OF SIMULTANEOUS TRIAL VECTORS:     120

 MAXIMUM NUMBER OF SIMULTANEOUS TRIAL VECTORS IN RSPNEX:      30

 ORBITAL TRIAL VECTOR

               Column   1
       1       1.00000000
    ==== End of matrix output ====
           1  ZYMAT MATRICES

               Column   1     Column   2     Column   3     Column   4     Column   5     Column   6     Column   7
       6       1.00000000     0.00000000     0.00000000     0.00000000     0.00000000     0.00000000     0.00000000
    ==== End of matrix output ====


Output from "RSPOLI". NCSIM,NOSIM=         0         1
TRPLET,HSROHF,DFTADD         F         F         F
TDHF,NASHT         T         0

 FCOEX MULLIKEN DISTRIBUTION CONTRB FOR VECTOR     1

               Column   1     Column   2     Column   3     Column   4     Column   5     Column   6     Column   7
       1       0.19982324    -0.03036271     0.00000000    -0.00273035     0.00000000     0.00000000     0.00000000
       2      -0.26886623     0.00613692     0.00000000    -0.01841862     0.00000000     0.00000000     0.00000000
       3       0.00000000     0.00000000    -0.00262389     0.00000000     0.00000000     0.00000000     0.00000000
       4      -0.26695881     0.00347477     0.00000000    -0.00120418     0.00000000     0.00000000     0.00000000
       5       0.00000000     0.00000000     0.00000000     0.00000000    -0.01325614     0.00000000     0.00000000
       6       0.78200644    -0.00741454     0.00000000     0.01800839     0.00000000     0.00000000     0.00000000
       7       0.00000000     0.00000000    -0.00766108     0.00000000     0.00000000     0.00000000     0.00000000
    ==== End of matrix output ====

 DIRAC DISTRIBUTION : IC,ID        1       1

               Column   1     Column   2     Column   3     Column   4     Column   5     Column   6     Column   7
       1       4.74665356    -0.42827876     0.00000000     0.16624589     0.00000000     0.19982324     0.00000000
       2      -0.42827876     0.06108567     0.00000000    -0.02181529     0.00000000    -0.03036271     0.00000000
       3       0.00000000     0.00000000     0.01059395     0.00000000     0.00000000     0.00000000     0.01436959
       4       0.16624589    -0.02181529     0.00000000     0.02441958     0.00000000    -0.00273035     0.00000000
       5       0.00000000     0.00000000     0.00000000     0.00000000     0.02596891     0.00000000     0.00000000
       6       0.19982324    -0.03036271     0.00000000    -0.00273035     0.00000000     0.02619666     0.00000000
       7       0.00000000     0.00000000     0.01436959     0.00000000     0.00000000     0.00000000     0.01952180
    ==== End of matrix output ====
 NOSIM=           1

 DIRAC DISTRIBUTION : IC,ID        2       1

               Column   1     Column   2     Column   3     Column   4     Column   5     Column   6     Column   7
       1      -0.42827876     0.06108567     0.00000000    -0.02181529     0.00000000    -0.03036271     0.00000000
       2       1.01919339    -0.01514189     0.00000000     0.01261430     0.00000000     0.00201289     0.00000000
       3       0.00000000     0.00000000     0.01681308     0.00000000     0.00000000     0.00000000     0.02171947
       4      -0.14655963     0.00812602     0.00000000     0.01848924     0.00000000    -0.02076828     0.00000000
       5       0.00000000     0.00000000     0.00000000     0.00000000     0.03318255     0.00000000     0.00000000
       6      -0.26886623     0.00613692     0.00000000    -0.01841862     0.00000000     0.00982593     0.00000000
       7       0.00000000     0.00000000     0.01473628     0.00000000     0.00000000     0.00000000     0.01910333
    ==== End of matrix output ====
 NOSIM=           1

 DIRAC DISTRIBUTION : IC,ID        2       2

               Column   1     Column   2     Column   3     Column   4     Column   5     Column   6     Column   7
       1       0.06108567    -0.01514189     0.00000000     0.00812602     0.00000000     0.00613692     0.00000000
       2      -0.01514189     0.72371915     0.00000000    -0.02250315     0.00000000    -0.13193226     0.00000000
       3       0.00000000     0.00000000     0.13122585     0.00000000     0.00000000     0.00000000     0.05369531
       4       0.00812602    -0.02250315     0.00000000     0.12967291     0.00000000    -0.03143003     0.00000000
       5       0.00000000     0.00000000     0.00000000     0.00000000     0.15005875     0.00000000     0.00000000
       6       0.00613692    -0.13193226     0.00000000    -0.03143003     0.00000000     0.09515273     0.00000000
       7       0.00000000     0.00000000     0.05369531     0.00000000     0.00000000     0.00000000     0.06781646
    ==== End of matrix output ====
 NOSIM=           1

 DIRAC DISTRIBUTION : IC,ID        3       1

               Column   1     Column   2     Column   3     Column   4     Column   5     Column   6     Column   7
       1       0.00000000     0.00000000     0.01059395     0.00000000     0.00000000     0.00000000     0.01436959
       2       0.00000000     0.00000000     0.01681308     0.00000000     0.00000000     0.00000000     0.02171947
       3       0.76304443    -0.00467144     0.00000000     0.00558455     0.00000000    -0.00057780     0.00000000
       4       0.00000000     0.00000000    -0.00256356     0.00000000     0.00000000     0.00000000    -0.00354316
       6       0.00000000     0.00000000    -0.00262389     0.00000000     0.00000000     0.00000000    -0.00303856
       7       0.37006623    -0.00701585     0.00000000    -0.00028522     0.00000000     0.00576995     0.00000000
    ==== End of matrix output ====
 NOSIM=           1

 DIRAC DISTRIBUTION : IC,ID        3       2

               Column   1     Column   2     Column   3     Column   4     Column   5     Column   6     Column   7
       1       0.00000000     0.00000000     0.01681308     0.00000000     0.00000000     0.00000000     0.01473628
       2       0.00000000     0.00000000     0.13122585     0.00000000     0.00000000     0.00000000     0.05369531
       3      -0.00467144     0.61626768     0.00000000     0.00435293     0.00000000    -0.06639608     0.00000000
       4       0.00000000     0.00000000     0.02763607     0.00000000     0.00000000     0.00000000    -0.03060193
       6       0.00000000     0.00000000     0.03754446     0.00000000     0.00000000     0.00000000    -0.03025650
       7      -0.00701585     0.16272189     0.00000000    -0.07759588     0.00000000    -0.06888172     0.00000000
    ==== End of matrix output ====
 NOSIM=           1

 DIRAC DISTRIBUTION : IC,ID        3       3

               Column   1     Column   2     Column   3     Column   4     Column   5     Column   6     Column   7
       1       0.01059395     0.01681308     0.00000000    -0.00256356     0.00000000    -0.00262389     0.00000000
       2       0.01681308     0.13122585     0.00000000     0.02763607     0.00000000     0.03754446     0.00000000
       3       0.00000000     0.00000000     0.59498869     0.00000000     0.00000000     0.00000000     0.08861125
       4      -0.00256356     0.02763607     0.00000000     0.05512477     0.00000000     0.03757393     0.00000000
       5       0.00000000     0.00000000     0.00000000     0.00000000     0.02646636     0.00000000     0.00000000
       6      -0.00262389     0.03754446     0.00000000     0.03757393     0.00000000     0.07499022     0.00000000
       7       0.00000000     0.00000000     0.08861125     0.00000000     0.00000000     0.00000000     0.15944890
    ==== End of matrix output ====
 NOSIM=           1

 DIRAC DISTRIBUTION : IC,ID        4       1

               Column   1     Column   2     Column   3     Column   4     Column   5     Column   6     Column   7
       1       0.16624589    -0.02181529     0.00000000     0.02441958     0.00000000    -0.00273035     0.00000000
       2      -0.14655963     0.00812602     0.00000000     0.01848924     0.00000000    -0.02076828     0.00000000
       3       0.00000000     0.00000000    -0.00256356     0.00000000     0.00000000     0.00000000    -0.00354316
       4       0.93904692    -0.01140059     0.00000000    -0.00892536     0.00000000     0.01592293     0.00000000
       5       0.00000000     0.00000000     0.00000000     0.00000000    -0.01200192     0.00000000     0.00000000
       6      -0.26695881     0.00347477     0.00000000    -0.00120418     0.00000000    -0.00177094     0.00000000
       7       0.00000000     0.00000000    -0.00829471     0.00000000     0.00000000     0.00000000    -0.01124770
    ==== End of matrix output ====
 NOSIM=           1

 DIRAC DISTRIBUTION : IC,ID        4       2

               Column   1     Column   2     Column   3     Column   4     Column   5     Column   6     Column   7
       1      -0.02181529     0.01261430     0.00000000     0.01848924     0.00000000    -0.01841862     0.00000000
       2       0.00812602    -0.02250315     0.00000000     0.12967291     0.00000000    -0.03143003     0.00000000
       3       0.00000000     0.00000000     0.02763607     0.00000000     0.00000000     0.00000000    -0.03060193
       4      -0.01140059     0.66203376     0.00000000    -0.09499536     0.00000000    -0.06473466     0.00000000
       5       0.00000000     0.00000000     0.00000000     0.00000000    -0.04424098     0.00000000     0.00000000
       6       0.00347477    -0.12500251     0.00000000     0.04773273     0.00000000     0.06025201     0.00000000
       7       0.00000000     0.00000000    -0.07284809     0.00000000     0.00000000     0.00000000    -0.01718859
    ==== End of matrix output ====
 NOSIM=           1

 DIRAC DISTRIBUTION : IC,ID        4       3

               Column   1     Column   2     Column   3     Column   4     Column   5     Column   6     Column   7
       1       0.00000000     0.00000000     0.00558455     0.00000000     0.00000000     0.00000000    -0.00028522
       2       0.00000000     0.00000000     0.00435293     0.00000000     0.00000000     0.00000000    -0.07759588
       3      -0.00256356     0.02763607     0.00000000     0.05512477     0.00000000     0.03757393     0.00000000
       4       0.00000000     0.00000000     0.56723089     0.00000000     0.00000000     0.00000000     0.14388103
       6       0.00000000     0.00000000    -0.04818871     0.00000000     0.00000000     0.00000000    -0.09989332
       7      -0.00829471    -0.07284809     0.00000000    -0.01265696     0.00000000    -0.05413710     0.00000000
    ==== End of matrix output ====
 NOSIM=           1

 DIRAC DISTRIBUTION : IC,ID        4       4

               Column   1     Column   2     Column   3     Column   4     Column   5     Column   6     Column   7
       1       0.02441958     0.01848924     0.00000000    -0.00892536     0.00000000    -0.00120418     0.00000000
       2       0.01848924     0.12967291     0.00000000    -0.09499536     0.00000000     0.04773273     0.00000000
       3       0.00000000     0.00000000     0.05512477     0.00000000     0.00000000     0.00000000    -0.01265696
       4      -0.00892536    -0.09499536     0.00000000     0.70777039     0.00000000    -0.13194411     0.00000000
       5       0.00000000     0.00000000     0.00000000     0.00000000     0.04883914     0.00000000     0.00000000
       6      -0.00120418     0.04773273     0.00000000    -0.13194411     0.00000000     0.09556993     0.00000000
       7       0.00000000     0.00000000    -0.01265696     0.00000000     0.00000000     0.00000000     0.07095268
    ==== End of matrix output ====
 NOSIM=           1

 DIRAC DISTRIBUTION : IC,ID        5       1

               Column   1     Column   2     Column   3     Column   4     Column   5     Column   6     Column   7
       1       0.00000000     0.00000000     0.00000000     0.00000000     0.02596891     0.00000000     0.00000000
       2       0.00000000     0.00000000     0.00000000     0.00000000     0.03318255     0.00000000     0.00000000
       4       0.00000000     0.00000000     0.00000000     0.00000000    -0.01200192     0.00000000     0.00000000
       5       1.11535632    -0.01211351     0.00000000     0.00467333     0.00000000     0.00541089     0.00000000
       6       0.00000000     0.00000000     0.00000000     0.00000000    -0.01325614     0.00000000     0.00000000
    ==== End of matrix output ====
 NOSIM=           1

 DIRAC DISTRIBUTION : IC,ID        5       2

               Column   1     Column   2     Column   3     Column   4     Column   5     Column   6     Column   7
       1       0.00000000     0.00000000     0.00000000     0.00000000     0.03318255     0.00000000     0.00000000
       2       0.00000000     0.00000000     0.00000000     0.00000000     0.15005875     0.00000000     0.00000000
       4       0.00000000     0.00000000     0.00000000     0.00000000    -0.04424098     0.00000000     0.00000000
       5      -0.01211351     0.75399847     0.00000000    -0.07938584     0.00000000    -0.14224407     0.00000000
       6       0.00000000     0.00000000     0.00000000     0.00000000    -0.05176596     0.00000000     0.00000000
    ==== End of matrix output ====
 NOSIM=           1

 DIRAC DISTRIBUTION : IC,ID        5       3

               Column   1     Column   2     Column   3     Column   4     Column   5     Column   6     Column   7
       3       0.00000000     0.00000000     0.00000000     0.00000000     0.02646636     0.00000000     0.00000000
       5       0.00000000     0.00000000     0.60260415     0.00000000     0.00000000     0.00000000     0.20195825
       7       0.00000000     0.00000000     0.00000000     0.00000000     0.02388764     0.00000000     0.00000000
    ==== End of matrix output ====
 NOSIM=           1

 DIRAC DISTRIBUTION : IC,ID        5       4

               Column   1     Column   2     Column   3     Column   4     Column   5     Column   6     Column   7
       1       0.00000000     0.00000000     0.00000000     0.00000000    -0.01200192     0.00000000     0.00000000
       2       0.00000000     0.00000000     0.00000000     0.00000000    -0.04424098     0.00000000     0.00000000
       4       0.00000000     0.00000000     0.00000000     0.00000000     0.04883914     0.00000000     0.00000000
       5       0.00467333    -0.07938584     0.00000000     0.69340717     0.00000000    -0.14759372     0.00000000
       6       0.00000000     0.00000000     0.00000000     0.00000000    -0.00511454     0.00000000     0.00000000
    ==== End of matrix output ====
 NOSIM=           1

 DIRAC DISTRIBUTION : IC,ID        5       5

               Column   1     Column   2     Column   3     Column   4     Column   5     Column   6     Column   7
       1       0.02596891     0.03318255     0.00000000    -0.01200192     0.00000000    -0.01325614     0.00000000
       2       0.03318255     0.15005875     0.00000000    -0.04424098     0.00000000    -0.05176596     0.00000000
       3       0.00000000     0.00000000     0.02646636     0.00000000     0.00000000     0.00000000     0.02388764
       4      -0.01200192    -0.04424098     0.00000000     0.04883914     0.00000000    -0.00511454     0.00000000
       5       0.00000000     0.00000000     0.00000000     0.00000000     0.88015909     0.00000000     0.00000000
       6      -0.01325614    -0.05176596     0.00000000    -0.00511454     0.00000000     0.03460313     0.00000000
       7       0.00000000     0.00000000     0.02388764     0.00000000     0.00000000     0.00000000     0.02504137
    ==== End of matrix output ====
 NOSIM=           1

 FCOEX contribution for vector    1

               Column   1     Column   2     Column   3     Column   4     Column   5     Column   6     Column   7
       1       0.19982324    -0.03036271     0.00000000    -0.00273035     0.00000000     0.02619666     0.00000000
       2      -0.26886623     0.00613692     0.00000000    -0.01841862     0.00000000     0.00982593     0.00000000
       3       0.00000000     0.00000000    -0.00262389     0.00000000     0.00000000     0.00000000    -0.00303856
       4      -0.26695881     0.00347477     0.00000000    -0.00120418     0.00000000    -0.00177094     0.00000000
       5       0.00000000     0.00000000     0.00000000     0.00000000    -0.01325614     0.00000000     0.00000000
       6       0.78200644    -0.00741454     0.00000000     0.01800839     0.00000000     0.00000000     0.00000000
       7       0.00000000     0.00000000    -0.00766108     0.00000000     0.00000000     0.00000000     0.00000000
    ==== End of matrix output ====

 FCOCO contribution for vector    1

               Column   1     Column   2     Column   3     Column   4     Column   5     Column   6     Column   7
       1      -0.19982324     0.03036271     0.00000000     0.00273035     0.00000000     0.00000000     0.00000000
       2       0.03036271    -0.00201289     0.00000000     0.02076828     0.00000000     0.00000000     0.00000000
       3       0.00000000     0.00000000     0.00057780     0.00000000     0.00000000     0.00000000     0.00000000
       4       0.00273035     0.02076828     0.00000000    -0.01592293     0.00000000     0.00000000     0.00000000
       5       0.00000000     0.00000000     0.00000000     0.00000000    -0.00541089     0.00000000     0.00000000
       6      -0.02619666    -0.00982593     0.00000000     0.00177094     0.00000000     0.00000000     0.00000000
       7       0.00000000     0.00000000    -0.00576995     0.00000000     0.00000000     0.00000000     0.00000000
    ==== End of matrix output ====
           1  ONE-INDEX TRANSFORMED FOCK CORE MATRIX
  BEFORE DIRECT [FC,ZYMAT] CONTRIBUTION

               Column   1     Column   2     Column   3     Column   4     Column   5
       1      -0.19982324     0.03036271     0.00000000     0.00273035     0.00000000
       2      -0.20814081     0.00211113     0.00000000     0.02311795     0.00000000
       3       0.00000000     0.00000000    -0.00146829     0.00000000     0.00000000
       4      -0.26149811     0.04501134     0.00000000    -0.03305005     0.00000000
       5       0.00000000     0.00000000     0.00000000     0.00000000    -0.02407792
       6       0.72961311    -0.02706641     0.00000000     0.02155027     0.00000000
       7       0.00000000     0.00000000    -0.01920098     0.00000000     0.00000000

               Column   6     Column   7
       1      -0.02619666     0.00000000
       2      -0.00982593     0.00000000
       3       0.00000000    -0.01457846
       4       0.00177094     0.00000000
    ==== End of matrix output ====
           1  ONE-INDEX TRANSFORMED FOCK CORE MATRIX

               Column   1     Column   2     Column   3     Column   4     Column   5
       1      -0.19982332     0.03036271     0.00000000     0.00273035     0.00000000
       2      -0.20814081     0.00211113     0.00000000     0.02311795     0.00000000
       3       0.00000000     0.00000000    -0.00146829     0.00000000     0.00000000
       4      -0.26149811     0.04501134     0.00000000    -0.03305005     0.00000000
       5       0.00000000     0.00000000     0.00000000     0.00000000    -0.02407792
       6     -20.01089722    -0.02706676     0.00000000     0.02155083     0.00000000
       7       0.00000000     0.00000000    -0.01920098     0.00000000     0.00000000

               Column   6     Column   7
       1      -0.02619666     0.00000000
       2      -0.00982593     0.00000000
       3       0.00000000    -0.01457846
       4       0.00177094     0.00000000
       6       0.00000008     0.00000000
    ==== End of matrix output ====
  CORE FOCK MATRIX 

     *** Block  1 ***

               Column   1     Column   2     Column   3     Column   4
       1     -20.26289163
       2      -0.00000036    -1.20969738
       3      -0.00000000    -0.00000000    -0.54796466
       4       0.00000056     0.00000000    -0.00000000    -0.43652721
       5       0.00000000    -0.00000000     0.00000000     0.00000000
       6       0.00000008     0.00000000    -0.00000000     0.00000000
       7      -0.00000000     0.00000000    -0.00000000     0.00000000

               Column   5     Column   6     Column   7
       5      -0.38758673
       6       0.00000000     0.47761871
       7      -0.00000000    -0.00000000     0.58813927
    ==== End of matrix output ====

 FCX total contribution for vector    1

               Column   1     Column   2     Column   3     Column   4     Column   5     Column   6     Column   7
       1      -0.19982332     0.03036271     0.00000000     0.00273035     0.00000000    -0.02619666     0.00000000
       2      -0.20814081     0.00211113     0.00000000     0.02311795     0.00000000    -0.00982593     0.00000000
       3       0.00000000     0.00000000    -0.00146829     0.00000000     0.00000000     0.00000000    -0.01457846
       4      -0.26149811     0.04501134     0.00000000    -0.03305005     0.00000000     0.00177094     0.00000000
       5       0.00000000     0.00000000     0.00000000     0.00000000    -0.02407792     0.00000000     0.00000000
       6     -20.01089722    -0.02706676     0.00000000     0.02155083     0.00000000     0.00000008     0.00000000
       7       0.00000000     0.00000000    -0.01920098     0.00000000     0.00000000     0.00000000     0.00000000
    ==== End of matrix output ====
  LINEAR TRANSFORMATION WITH  E(2) (Z1 Y1 Z1 Y2 ...)

               Column   1     Column   2
       1      40.02179445    -0.05239333
       3       0.05413353    -0.01965186
       6       0.03840196    -0.02915692
       7      -0.04310166     0.00354188
    ==== End of matrix output ====
           1  ZYMAT MATRICES

               Column   1     Column   2     Column   3     Column   4     Column   5     Column   6     Column   7
       6       1.00000000     0.00000000     0.00000000     0.00000000     0.00000000     0.00000000     0.00000000
    ==== End of matrix output ====
  LINEAR TRANSFORMATION WITH  S(2) (Z1 Y1 Z1 Y2 ...)

               Column   1     Column   2
       1       2.00000000     0.00000000
    ==== End of matrix output ====

 ORBITAL TRIAL VECTOR

               Column   1
       2       1.00000000
    ==== End of matrix output ====
           1  ZYMAT MATRICES

               Column   1     Column   2     Column   3     Column   4     Column   5     Column   6     Column   7
       7       1.00000000     0.00000000     0.00000000     0.00000000     0.00000000     0.00000000     0.00000000
    ==== End of matrix output ====


Output from "RSPOLI". NCSIM,NOSIM=         0         1
TRPLET,HSROHF,DFTADD         F         F         F
TDHF,NASHT         T         0

 FCOEX MULLIKEN DISTRIBUTION CONTRB FOR VECTOR     1

               Column   1     Column   2     Column   3     Column   4     Column   5     Column   6     Column   7
       1       0.00000000     0.00000000     0.01436959     0.00000000     0.00000000     0.00000000     0.00000000
       2       0.00000000     0.00000000     0.01473628     0.00000000     0.00000000     0.00000000     0.00000000
       3       0.37006623    -0.00701585     0.00000000    -0.00028522     0.00000000     0.00000000     0.00000000
       4       0.00000000     0.00000000    -0.00829471     0.00000000     0.00000000     0.00000000     0.00000000
       6       0.00000000     0.00000000    -0.00766108     0.00000000     0.00000000     0.00000000     0.00000000
       7       0.83969678    -0.00892053     0.00000000     0.00374020     0.00000000     0.00000000     0.00000000
    ==== End of matrix output ====

 DIRAC DISTRIBUTION : IC,ID        1       1

               Column   1     Column   2     Column   3     Column   4     Column   5     Column   6     Column   7
       1       4.74665356    -0.42827876     0.00000000     0.16624589     0.00000000     0.19982324     0.00000000
       2      -0.42827876     0.06108567     0.00000000    -0.02181529     0.00000000    -0.03036271     0.00000000
       3       0.00000000     0.00000000     0.01059395     0.00000000     0.00000000     0.00000000     0.01436959
       4       0.16624589    -0.02181529     0.00000000     0.02441958     0.00000000    -0.00273035     0.00000000
       5       0.00000000     0.00000000     0.00000000     0.00000000     0.02596891     0.00000000     0.00000000
       6       0.19982324    -0.03036271     0.00000000    -0.00273035     0.00000000     0.02619666     0.00000000
       7       0.00000000     0.00000000     0.01436959     0.00000000     0.00000000     0.00000000     0.01952180
    ==== End of matrix output ====
 NOSIM=           1

 DIRAC DISTRIBUTION : IC,ID        2       1

               Column   1     Column   2     Column   3     Column   4     Column   5     Column   6     Column   7
       1      -0.42827876     0.06108567     0.00000000    -0.02181529     0.00000000    -0.03036271     0.00000000
       2       1.01919339    -0.01514189     0.00000000     0.01261430     0.00000000     0.00201289     0.00000000
       3       0.00000000     0.00000000     0.01681308     0.00000000     0.00000000     0.00000000     0.02171947
       4      -0.14655963     0.00812602     0.00000000     0.01848924     0.00000000    -0.02076828     0.00000000
       5       0.00000000     0.00000000     0.00000000     0.00000000     0.03318255     0.00000000     0.00000000
       6      -0.26886623     0.00613692     0.00000000    -0.01841862     0.00000000     0.00982593     0.00000000
       7       0.00000000     0.00000000     0.01473628     0.00000000     0.00000000     0.00000000     0.01910333
    ==== End of matrix output ====
 NOSIM=           1

 DIRAC DISTRIBUTION : IC,ID        2       2

               Column   1     Column   2     Column   3     Column   4     Column   5     Column   6     Column   7
       1       0.06108567    -0.01514189     0.00000000     0.00812602     0.00000000     0.00613692     0.00000000
       2      -0.01514189     0.72371915     0.00000000    -0.02250315     0.00000000    -0.13193226     0.00000000
       3       0.00000000     0.00000000     0.13122585     0.00000000     0.00000000     0.00000000     0.05369531
       4       0.00812602    -0.02250315     0.00000000     0.12967291     0.00000000    -0.03143003     0.00000000
       5       0.00000000     0.00000000     0.00000000     0.00000000     0.15005875     0.00000000     0.00000000
       6       0.00613692    -0.13193226     0.00000000    -0.03143003     0.00000000     0.09515273     0.00000000
       7       0.00000000     0.00000000     0.05369531     0.00000000     0.00000000     0.00000000     0.06781646
    ==== End of matrix output ====
 NOSIM=           1

 DIRAC DISTRIBUTION : IC,ID        3       1

               Column   1     Column   2     Column   3     Column   4     Column   5     Column   6     Column   7
       1       0.00000000     0.00000000     0.01059395     0.00000000     0.00000000     0.00000000     0.01436959
       2       0.00000000     0.00000000     0.01681308     0.00000000     0.00000000     0.00000000     0.02171947
       3       0.76304443    -0.00467144     0.00000000     0.00558455     0.00000000    -0.00057780     0.00000000
       4       0.00000000     0.00000000    -0.00256356     0.00000000     0.00000000     0.00000000    -0.00354316
       6       0.00000000     0.00000000    -0.00262389     0.00000000     0.00000000     0.00000000    -0.00303856
       7       0.37006623    -0.00701585     0.00000000    -0.00028522     0.00000000     0.00576995     0.00000000
    ==== End of matrix output ====
 NOSIM=           1

 DIRAC DISTRIBUTION : IC,ID        3       2

               Column   1     Column   2     Column   3     Column   4     Column   5     Column   6     Column   7
       1       0.00000000     0.00000000     0.01681308     0.00000000     0.00000000     0.00000000     0.01473628
       2       0.00000000     0.00000000     0.13122585     0.00000000     0.00000000     0.00000000     0.05369531
       3      -0.00467144     0.61626768     0.00000000     0.00435293     0.00000000    -0.06639608     0.00000000
       4       0.00000000     0.00000000     0.02763607     0.00000000     0.00000000     0.00000000    -0.03060193
       6       0.00000000     0.00000000     0.03754446     0.00000000     0.00000000     0.00000000    -0.03025650
       7      -0.00701585     0.16272189     0.00000000    -0.07759588     0.00000000    -0.06888172     0.00000000
    ==== End of matrix output ====
 NOSIM=           1

 DIRAC DISTRIBUTION : IC,ID        3       3

               Column   1     Column   2     Column   3     Column   4     Column   5     Column   6     Column   7
       1       0.01059395     0.01681308     0.00000000    -0.00256356     0.00000000    -0.00262389     0.00000000
       2       0.01681308     0.13122585     0.00000000     0.02763607     0.00000000     0.03754446     0.00000000
       3       0.00000000     0.00000000     0.59498869     0.00000000     0.00000000     0.00000000     0.08861125
       4      -0.00256356     0.02763607     0.00000000     0.05512477     0.00000000     0.03757393     0.00000000
       5       0.00000000     0.00000000     0.00000000     0.00000000     0.02646636     0.00000000     0.00000000
       6      -0.00262389     0.03754446     0.00000000     0.03757393     0.00000000     0.07499022     0.00000000
       7       0.00000000     0.00000000     0.08861125     0.00000000     0.00000000     0.00000000     0.15944890
    ==== End of matrix output ====
 NOSIM=           1

 DIRAC DISTRIBUTION : IC,ID        4       1

               Column   1     Column   2     Column   3     Column   4     Column   5     Column   6     Column   7
       1       0.16624589    -0.02181529     0.00000000     0.02441958     0.00000000    -0.00273035     0.00000000
       2      -0.14655963     0.00812602     0.00000000     0.01848924     0.00000000    -0.02076828     0.00000000
       3       0.00000000     0.00000000    -0.00256356     0.00000000     0.00000000     0.00000000    -0.00354316
       4       0.93904692    -0.01140059     0.00000000    -0.00892536     0.00000000     0.01592293     0.00000000
       5       0.00000000     0.00000000     0.00000000     0.00000000    -0.01200192     0.00000000     0.00000000
       6      -0.26695881     0.00347477     0.00000000    -0.00120418     0.00000000    -0.00177094     0.00000000
       7       0.00000000     0.00000000    -0.00829471     0.00000000     0.00000000     0.00000000    -0.01124770
    ==== End of matrix output ====
 NOSIM=           1

 DIRAC DISTRIBUTION : IC,ID        4       2

               Column   1     Column   2     Column   3     Column   4     Column   5     Column   6     Column   7
       1      -0.02181529     0.01261430     0.00000000     0.01848924     0.00000000    -0.01841862     0.00000000
       2       0.00812602    -0.02250315     0.00000000     0.12967291     0.00000000    -0.03143003     0.00000000
       3       0.00000000     0.00000000     0.02763607     0.00000000     0.00000000     0.00000000    -0.03060193
       4      -0.01140059     0.66203376     0.00000000    -0.09499536     0.00000000    -0.06473466     0.00000000
       5       0.00000000     0.00000000     0.00000000     0.00000000    -0.04424098     0.00000000     0.00000000
       6       0.00347477    -0.12500251     0.00000000     0.04773273     0.00000000     0.06025201     0.00000000
       7       0.00000000     0.00000000    -0.07284809     0.00000000     0.00000000     0.00000000    -0.01718859
    ==== End of matrix output ====
 NOSIM=           1

 DIRAC DISTRIBUTION : IC,ID        4       3

               Column   1     Column   2     Column   3     Column   4     Column   5     Column   6     Column   7
       1       0.00000000     0.00000000     0.00558455     0.00000000     0.00000000     0.00000000    -0.00028522
       2       0.00000000     0.00000000     0.00435293     0.00000000     0.00000000     0.00000000    -0.07759588
       3      -0.00256356     0.02763607     0.00000000     0.05512477     0.00000000     0.03757393     0.00000000
       4       0.00000000     0.00000000     0.56723089     0.00000000     0.00000000     0.00000000     0.14388103
       6       0.00000000     0.00000000    -0.04818871     0.00000000     0.00000000     0.00000000    -0.09989332
       7      -0.00829471    -0.07284809     0.00000000    -0.01265696     0.00000000    -0.05413710     0.00000000
    ==== End of matrix output ====
 NOSIM=           1

 DIRAC DISTRIBUTION : IC,ID        4       4

               Column   1     Column   2     Column   3     Column   4     Column   5     Column   6     Column   7
       1       0.02441958     0.01848924     0.00000000    -0.00892536     0.00000000    -0.00120418     0.00000000
       2       0.01848924     0.12967291     0.00000000    -0.09499536     0.00000000     0.04773273     0.00000000
       3       0.00000000     0.00000000     0.05512477     0.00000000     0.00000000     0.00000000    -0.01265696
       4      -0.00892536    -0.09499536     0.00000000     0.70777039     0.00000000    -0.13194411     0.00000000
       5       0.00000000     0.00000000     0.00000000     0.00000000     0.04883914     0.00000000     0.00000000
       6      -0.00120418     0.04773273     0.00000000    -0.13194411     0.00000000     0.09556993     0.00000000
       7       0.00000000     0.00000000    -0.01265696     0.00000000     0.00000000     0.00000000     0.07095268
    ==== End of matrix output ====
 NOSIM=           1

 DIRAC DISTRIBUTION : IC,ID        5       1

               Column   1     Column   2     Column   3     Column   4     Column   5     Column   6     Column   7
       1       0.00000000     0.00000000     0.00000000     0.00000000     0.02596891     0.00000000     0.00000000
       2       0.00000000     0.00000000     0.00000000     0.00000000     0.03318255     0.00000000     0.00000000
       4       0.00000000     0.00000000     0.00000000     0.00000000    -0.01200192     0.00000000     0.00000000
       5       1.11535632    -0.01211351     0.00000000     0.00467333     0.00000000     0.00541089     0.00000000
       6       0.00000000     0.00000000     0.00000000     0.00000000    -0.01325614     0.00000000     0.00000000
    ==== End of matrix output ====
 NOSIM=           1

 DIRAC DISTRIBUTION : IC,ID        5       2

               Column   1     Column   2     Column   3     Column   4     Column   5     Column   6     Column   7
       1       0.00000000     0.00000000     0.00000000     0.00000000     0.03318255     0.00000000     0.00000000
       2       0.00000000     0.00000000     0.00000000     0.00000000     0.15005875     0.00000000     0.00000000
       4       0.00000000     0.00000000     0.00000000     0.00000000    -0.04424098     0.00000000     0.00000000
       5      -0.01211351     0.75399847     0.00000000    -0.07938584     0.00000000    -0.14224407     0.00000000
       6       0.00000000     0.00000000     0.00000000     0.00000000    -0.05176596     0.00000000     0.00000000
    ==== End of matrix output ====
 NOSIM=           1

 DIRAC DISTRIBUTION : IC,ID        5       3

               Column   1     Column   2     Column   3     Column   4     Column   5     Column   6     Column   7
       3       0.00000000     0.00000000     0.00000000     0.00000000     0.02646636     0.00000000     0.00000000
       5       0.00000000     0.00000000     0.60260415     0.00000000     0.00000000     0.00000000     0.20195825
       7       0.00000000     0.00000000     0.00000000     0.00000000     0.02388764     0.00000000     0.00000000
    ==== End of matrix output ====
 NOSIM=           1

 DIRAC DISTRIBUTION : IC,ID        5       4

               Column   1     Column   2     Column   3     Column   4     Column   5     Column   6     Column   7
       1       0.00000000     0.00000000     0.00000000     0.00000000    -0.01200192     0.00000000     0.00000000
       2       0.00000000     0.00000000     0.00000000     0.00000000    -0.04424098     0.00000000     0.00000000
       4       0.00000000     0.00000000     0.00000000     0.00000000     0.04883914     0.00000000     0.00000000
       5       0.00467333    -0.07938584     0.00000000     0.69340717     0.00000000    -0.14759372     0.00000000
       6       0.00000000     0.00000000     0.00000000     0.00000000    -0.00511454     0.00000000     0.00000000
    ==== End of matrix output ====
 NOSIM=           1

 DIRAC DISTRIBUTION : IC,ID        5       5

               Column   1     Column   2     Column   3     Column   4     Column   5     Column   6     Column   7
       1       0.02596891     0.03318255     0.00000000    -0.01200192     0.00000000    -0.01325614     0.00000000
       2       0.03318255     0.15005875     0.00000000    -0.04424098     0.00000000    -0.05176596     0.00000000
       3       0.00000000     0.00000000     0.02646636     0.00000000     0.00000000     0.00000000     0.02388764
       4      -0.01200192    -0.04424098     0.00000000     0.04883914     0.00000000    -0.00511454     0.00000000
       5       0.00000000     0.00000000     0.00000000     0.00000000     0.88015909     0.00000000     0.00000000
       6      -0.01325614    -0.05176596     0.00000000    -0.00511454     0.00000000     0.03460313     0.00000000
       7       0.00000000     0.00000000     0.02388764     0.00000000     0.00000000     0.00000000     0.02504137
    ==== End of matrix output ====
 NOSIM=           1

 FCOEX contribution for vector    1

               Column   1     Column   2     Column   3     Column   4     Column   5     Column   6     Column   7
       1       0.00000000     0.00000000     0.01436959     0.00000000     0.00000000     0.00000000     0.01952180
       2       0.00000000     0.00000000     0.01473628     0.00000000     0.00000000     0.00000000     0.01910333
       3       0.37006623    -0.00701585     0.00000000    -0.00028522     0.00000000     0.00576995     0.00000000
       4       0.00000000     0.00000000    -0.00829471     0.00000000     0.00000000     0.00000000    -0.01124770
       6       0.00000000     0.00000000    -0.00766108     0.00000000     0.00000000     0.00000000     0.00000000
       7       0.83969678    -0.00892053     0.00000000     0.00374020     0.00000000     0.00000000     0.00000000
    ==== End of matrix output ====

 FCOCO contribution for vector    1

               Column   1     Column   2     Column   3     Column   4     Column   5     Column   6     Column   7
       1       0.00000000     0.00000000    -0.01436959     0.00000000     0.00000000     0.00000000     0.00000000
       2       0.00000000     0.00000000    -0.02171947     0.00000000     0.00000000     0.00000000     0.00000000
       3      -0.01436959    -0.02171947     0.00000000     0.00354316     0.00000000     0.00000000     0.00000000
       4       0.00000000     0.00000000     0.00354316     0.00000000     0.00000000     0.00000000     0.00000000
       6       0.00000000     0.00000000     0.00303856     0.00000000     0.00000000     0.00000000     0.00000000
       7      -0.01952180    -0.01910333     0.00000000     0.01124770     0.00000000     0.00000000     0.00000000
    ==== End of matrix output ====
           1  ONE-INDEX TRANSFORMED FOCK CORE MATRIX
  BEFORE DIRECT [FC,ZYMAT] CONTRIBUTION

               Column   1     Column   2     Column   3     Column   4     Column   5
       1       0.00000000     0.00000000    -0.01436959     0.00000000     0.00000000
       2       0.00000000     0.00000000    -0.02870266     0.00000000     0.00000000
       3       0.34132705    -0.05045479     0.00000000     0.00680111     0.00000000
       4       0.00000000     0.00000000    -0.00120838     0.00000000     0.00000000
       6       0.00000000     0.00000000    -0.00158396     0.00000000     0.00000000
       7       0.80065319    -0.04712718     0.00000000     0.02623560     0.00000000

               Column   6     Column   7
       1       0.00000000    -0.01952180
       2       0.00000000    -0.01910333
       3       0.01184707     0.00000000
       4       0.00000000     0.01124770
    ==== End of matrix output ====
           1  ONE-INDEX TRANSFORMED FOCK CORE MATRIX

               Column   1     Column   2     Column   3     Column   4     Column   5
       1       0.00000000     0.00000000    -0.01436959     0.00000000     0.00000000
       2       0.00000000     0.00000000    -0.02870266     0.00000000     0.00000000
       3       0.34132706    -0.05045479     0.00000000     0.00680111     0.00000000
       4       0.00000000     0.00000000    -0.00120838     0.00000000     0.00000000
       6       0.00000000     0.00000000    -0.00158396     0.00000000     0.00000000
       7     -20.05037771    -0.04712754     0.00000000     0.02623617     0.00000000

               Column   6     Column   7
       1       0.00000000    -0.01952180
       2       0.00000000    -0.01910333
       3       0.01184707     0.00000000
       4       0.00000000     0.01124770
       7       0.00000008     0.00000000
    ==== End of matrix output ====
  CORE FOCK MATRIX 

     *** Block  1 ***

               Column   1     Column   2     Column   3     Column   4
       1     -20.26289163
       2      -0.00000036    -1.20969738
       3      -0.00000000    -0.00000000    -0.54796466
       4       0.00000056     0.00000000    -0.00000000    -0.43652721
       5       0.00000000    -0.00000000     0.00000000     0.00000000
       6       0.00000008     0.00000000    -0.00000000     0.00000000
       7      -0.00000000     0.00000000    -0.00000000     0.00000000

               Column   5     Column   6     Column   7
       5      -0.38758673
       6       0.00000000     0.47761871
       7      -0.00000000    -0.00000000     0.58813927
    ==== End of matrix output ====

 FCX total contribution for vector    1

               Column   1     Column   2     Column   3     Column   4     Column   5     Column   6     Column   7
       1       0.00000000     0.00000000    -0.01436959     0.00000000     0.00000000     0.00000000    -0.01952180
       2       0.00000000     0.00000000    -0.02870266     0.00000000     0.00000000     0.00000000    -0.01910333
       3       0.34132706    -0.05045479     0.00000000     0.00680111     0.00000000     0.01184707     0.00000000
       4       0.00000000     0.00000000    -0.00120838     0.00000000     0.00000000     0.00000000     0.01124770
       6       0.00000000     0.00000000    -0.00158396     0.00000000     0.00000000     0.00000000     0.00000000
[...]
       7       2.00000000
       8       0.00000000     2.00000000
       9       0.00000000     0.00000000     2.00000000
      10       0.00000000     0.00000000     0.00000000     2.00000000
      11       0.00000000     0.00000000     0.00000000     0.00000000    -2.00000000
      12       0.00000000     0.00000000     0.00000000     0.00000000     0.00000000    -2.00000000

               Column  13     Column  14     Column  15     Column  16     Column  17     Column  18
      13      -2.00000000
      14       0.00000000    -2.00000000
      15       0.00000000     0.00000000    -2.00000000
      16       0.00000000     0.00000000     0.00000000    -2.00000000
      17       0.00000000     0.00000000     0.00000000     0.00000000    -2.00000000
      18       0.00000000     0.00000000     0.00000000     0.00000000     0.00000000    -2.00000000

               Column  19     Column  20
      19      -2.00000000
      20       0.00000000    -2.00000000
    ==== End of matrix output ====

 RSPRED: REDUCED METRIC MATRIX:

               Column   1     Column   2     Column   3     Column   4     Column   5     Column   6
       1       1.00000000
       2       0.00000000     1.00000000
       3       0.00000000     0.00000000     1.00000000
       4       0.00000000     0.00000000     0.00000000     1.00000000
       5       0.00000000     0.00000000     0.00000000     0.00000000     1.00000000
       6       0.00000000     0.00000000     0.00000000     0.00000000     0.00000000     1.00000000

               Column   7     Column   8     Column   9     Column  10     Column  11     Column  12
       7       1.00000000
       8       0.00000000     1.00000000
       9       0.00000000     0.00000000     1.00000000
      10       0.00000000     0.00000000     0.00000000     1.00000000
      11       0.00000000     0.00000000     0.00000000     0.00000000     1.00000000
      12       0.00000000     0.00000000     0.00000000     0.00000000     0.00000000     1.00000000

               Column  13     Column  14     Column  15     Column  16     Column  17     Column  18
      13       1.00000000
      14       0.00000000     1.00000000
      15       0.00000000     0.00000000     1.00000000
      16       0.00000000     0.00000000     0.00000000     1.00000000
      17       0.00000000     0.00000000     0.00000000     0.00000000     1.00000000
      18       0.00000000     0.00000000     0.00000000     0.00000000     0.00000000     1.00000000

               Column  19     Column  20
      19       1.00000000
      20       0.00000000     1.00000000
    ==== End of matrix output ====

 REDUCED EIGENVECTORS BEFORE ORDERING:

               Column   1     Column   2     Column   3     Column   4     Column   5     Column   6     Column   7     Column   8
       1       1.00000000     0.00000000     0.00000000     0.00000000     0.00000000     0.00000000     0.00000000     0.00000000
       2       0.00000000     1.00000000     0.00000000     0.00000000     0.00000000     0.00000000     0.00000000     0.00000000
       3       0.00000000     0.00000000     1.00000000     0.00000000     0.00000000     0.00000000     0.00000000     0.00000000
       4       0.00000000     0.00000000     0.00000000     1.00000000     0.00000000     0.00000000     0.00000000     0.00000000
       5       0.00000000     0.00000000     0.00000000     0.00000000     1.00000000     0.00000000     0.00000000     0.00000000
       6       0.00000000     0.00000000     0.00000000     0.00000000     0.00000000     1.00000000     0.00000000     0.00000000
       7       0.00000000     0.00000000     0.00000000     0.00000000     0.00000000     0.00000000     1.00000000     0.00000000
       8       0.00000000     0.00000000     0.00000000     0.00000000     0.00000000     0.00000000     0.00000000     1.00000000

               Column   9     Column  10     Column  11     Column  12     Column  13     Column  14     Column  15     Column  16
       9       1.00000000     0.00000000     0.00000000     0.00000000     0.00000000     0.00000000     0.00000000     0.00000000
      10       0.00000000     1.00000000     0.00000000     0.00000000     0.00000000     0.00000000     0.00000000     0.00000000
      11       0.00000000     0.00000000     1.00000000     0.00000000     0.00000000     0.00000000     0.00000000     0.00000000
      12       0.00000000     0.00000000     0.00000000     1.00000000     0.00000000     0.00000000     0.00000000     0.00000000
      13       0.00000000     0.00000000     0.00000000     0.00000000     1.00000000     0.00000000     0.00000000     0.00000000
      14       0.00000000     0.00000000     0.00000000     0.00000000     0.00000000     1.00000000     0.00000000     0.00000000
      15       0.00000000     0.00000000     0.00000000     0.00000000     0.00000000     0.00000000     1.00000000     0.00000000
      16       0.00000000     0.00000000     0.00000000     0.00000000     0.00000000     0.00000000     0.00000000     1.00000000

               Column  17     Column  18     Column  19     Column  20
      17       1.00000000     0.00000000     0.00000000     0.00000000
      18       0.00000000     1.00000000     0.00000000     0.00000000
      19       0.00000000     0.00000000     1.00000000     0.00000000
      20       0.00000000     0.00000000     0.00000000     1.00000000
    ==== End of matrix output ====

 REDUCED EIGENVALUES (2,KZRED):

               Column   1     Column   2     Column   3     Column   4     Column   5     Column   6     Column   7     Column   8
       1       2.00000000     2.00000000     2.00000000     2.00000000     2.00000000    -2.00000000    -2.00000000    -2.00000000
       2       2.00000000     2.00000000     2.00000000     2.00000000     2.00000000    -2.00000000    -2.00000000    -2.00000000

               Column   9     Column  10
       1      -2.00000000    -2.00000000
       2      -2.00000000    -2.00000000
    ==== End of matrix output ====


     (ALFAR + i ALFAI) / BETA are eigenvalues;
   I      ALFAR           ALFAI          BETA
    1   2.000000D+00   0.000000D+00   1.000000D+00
    2   2.000000D+00   0.000000D+00   1.000000D+00
    3   2.000000D+00   0.000000D+00   1.000000D+00
    4   2.000000D+00   0.000000D+00   1.000000D+00
    5   2.000000D+00   0.000000D+00   1.000000D+00
    6   2.000000D+00   0.000000D+00   1.000000D+00
    7   2.000000D+00   0.000000D+00   1.000000D+00
    8   2.000000D+00   0.000000D+00   1.000000D+00
    9   2.000000D+00   0.000000D+00   1.000000D+00
   10   2.000000D+00   0.000000D+00   1.000000D+00
   11  -2.000000D+00   0.000000D+00   1.000000D+00
   12  -2.000000D+00   0.000000D+00   1.000000D+00
   13  -2.000000D+00   0.000000D+00   1.000000D+00
   14  -2.000000D+00   0.000000D+00   1.000000D+00
   15  -2.000000D+00   0.000000D+00   1.000000D+00
   16  -2.000000D+00   0.000000D+00   1.000000D+00
   17  -2.000000D+00   0.000000D+00   1.000000D+00
   18  -2.000000D+00   0.000000D+00   1.000000D+00
   19  -2.000000D+00   0.000000D+00   1.000000D+00
   20  -2.000000D+00   0.000000D+00   1.000000D+00

 Unsorted eigenvalues of [ E(2) , S(2) ] :
         1   2.000000D+00
         2   2.000000D+00
         3   2.000000D+00
         4   2.000000D+00
         5   2.000000D+00
         6   2.000000D+00
         7   2.000000D+00
         8   2.000000D+00
         9   2.000000D+00
        10   2.000000D+00
        11  -2.000000D+00
        12  -2.000000D+00
        13  -2.000000D+00
        14  -2.000000D+00
        15  -2.000000D+00
        16  -2.000000D+00
        17  -2.000000D+00
        18  -2.000000D+00
        19  -2.000000D+00
        20  -2.000000D+00

 Reduced S(2) in eigenvector basis :

               Column   1     Column   2     Column   3     Column   4     Column   5     Column   6     Column   7     Column   8
       1       1.00000000     0.00000000     0.00000000     0.00000000     0.00000000     0.00000000     0.00000000     0.00000000
       2       0.00000000     1.00000000     0.00000000     0.00000000     0.00000000     0.00000000     0.00000000     0.00000000
       3       0.00000000     0.00000000     1.00000000     0.00000000     0.00000000     0.00000000     0.00000000     0.00000000
       4       0.00000000     0.00000000     0.00000000     1.00000000     0.00000000     0.00000000     0.00000000     0.00000000
       5       0.00000000     0.00000000     0.00000000     0.00000000     1.00000000     0.00000000     0.00000000     0.00000000
       6       0.00000000     0.00000000     0.00000000     0.00000000     0.00000000     1.00000000     0.00000000     0.00000000
       7       0.00000000     0.00000000     0.00000000     0.00000000     0.00000000     0.00000000     1.00000000     0.00000000
       8       0.00000000     0.00000000     0.00000000     0.00000000     0.00000000     0.00000000     0.00000000     1.00000000

               Column   9     Column  10     Column  11     Column  12     Column  13     Column  14     Column  15     Column  16
       9       1.00000000     0.00000000     0.00000000     0.00000000     0.00000000     0.00000000     0.00000000     0.00000000
      10       0.00000000     1.00000000     0.00000000     0.00000000     0.00000000     0.00000000     0.00000000     0.00000000
      11       0.00000000     0.00000000     1.00000000     0.00000000     0.00000000     0.00000000     0.00000000     0.00000000
      12       0.00000000     0.00000000     0.00000000     1.00000000     0.00000000     0.00000000     0.00000000     0.00000000
      13       0.00000000     0.00000000     0.00000000     0.00000000     1.00000000     0.00000000     0.00000000     0.00000000
      14       0.00000000     0.00000000     0.00000000     0.00000000     0.00000000     1.00000000     0.00000000     0.00000000
      15       0.00000000     0.00000000     0.00000000     0.00000000     0.00000000     0.00000000     1.00000000     0.00000000
      16       0.00000000     0.00000000     0.00000000     0.00000000     0.00000000     0.00000000     0.00000000     1.00000000

               Column  17     Column  18     Column  19     Column  20
      17       1.00000000     0.00000000     0.00000000     0.00000000
      18       0.00000000     1.00000000     0.00000000     0.00000000
      19       0.00000000     0.00000000     1.00000000     0.00000000
      20       0.00000000     0.00000000     0.00000000     1.00000000
    ==== End of matrix output ====

 *** EIGENVECTORS WITH POSITIVE METRIC:    20
 *** EIGENVECTORS WITH ZERO METRIC:         0
 *** EIGENVECTORS WITH NEGATIVE METRIC:     0

 ***** WARNING *********
 number of eigenvalues with negative metric differ from
 number with positive metric

   NUMBER    EIGENVALUE 
         1     -2.00000000D+00
         2     -2.00000000D+00
         3     -2.00000000D+00
         4     -2.00000000D+00
         5     -2.00000000D+00
         6     -2.00000000D+00
         7     -2.00000000D+00
         8     -2.00000000D+00
         9     -2.00000000D+00
        10     -2.00000000D+00
        11      2.00000000D+00
        12      2.00000000D+00
        13      2.00000000D+00
        14      2.00000000D+00
        15      2.00000000D+00
        16      2.00000000D+00
        17      2.00000000D+00
        18      2.00000000D+00
        19      2.00000000D+00
        20      2.00000000D+00
 S[2] reduced matrix

               Column   1     Column   2     Column   3     Column   4     Column   5     Column   6
       1       1.00000000
       2       0.00000000     1.00000000
       3       0.00000000     0.00000000     1.00000000
       4       0.00000000     0.00000000     0.00000000     1.00000000
       5       0.00000000     0.00000000     0.00000000     0.00000000     1.00000000
       6       0.00000000     0.00000000     0.00000000     0.00000000     0.00000000     1.00000000

               Column   7     Column   8     Column   9     Column  10     Column  11     Column  12
       7       1.00000000
       8       0.00000000     1.00000000
       9       0.00000000     0.00000000     1.00000000
      10       0.00000000     0.00000000     0.00000000     1.00000000
      11       0.00000000     0.00000000     0.00000000     0.00000000     1.00000000
      12       0.00000000     0.00000000     0.00000000     0.00000000     0.00000000     1.00000000

               Column  13     Column  14     Column  15     Column  16     Column  17     Column  18
      13       1.00000000
      14       0.00000000     1.00000000
      15       0.00000000     0.00000000     1.00000000
      16       0.00000000     0.00000000     0.00000000     1.00000000
      17       0.00000000     0.00000000     0.00000000     0.00000000     1.00000000
      18       0.00000000     0.00000000     0.00000000     0.00000000     0.00000000     1.00000000

               Column  19     Column  20
      19       1.00000000
      20       0.00000000     1.00000000
    ==== End of matrix output ====
 The eigenvalues of S[2] reduced matri

               Column   1     Column   2     Column   3     Column   4     Column   5     Column   6     Column   7     Column   8
       1       1.00000000     1.00000000     1.00000000     1.00000000     1.00000000     1.00000000     1.00000000     1.00000000
       2       1.00000000     1.00000000     1.00000000     1.00000000     1.00000000     1.00000000     1.00000000     1.00000000

               Column   9     Column  10
       1       1.00000000     1.00000000
       2       1.00000000     1.00000000
    ==== End of matrix output ====
 E[2] reduced matrix

               Column   1     Column   2     Column   3     Column   4     Column   5     Column   6
       1       2.00000000
       2       0.00000000     2.00000000
       3       0.00000000     0.00000000     2.00000000
       4       0.00000000     0.00000000     0.00000000     2.00000000
       5       0.00000000     0.00000000     0.00000000     0.00000000     2.00000000
       6       0.00000000     0.00000000     0.00000000     0.00000000     0.00000000     2.00000000

               Column   7     Column   8     Column   9     Column  10     Column  11     Column  12
       7       2.00000000
       8       0.00000000     2.00000000
       9       0.00000000     0.00000000     2.00000000
      10       0.00000000     0.00000000     0.00000000     2.00000000
      11       0.00000000     0.00000000     0.00000000     0.00000000    -2.00000000
      12       0.00000000     0.00000000     0.00000000     0.00000000     0.00000000    -2.00000000

               Column  13     Column  14     Column  15     Column  16     Column  17     Column  18
      13      -2.00000000
      14       0.00000000    -2.00000000
      15       0.00000000     0.00000000    -2.00000000
      16       0.00000000     0.00000000     0.00000000    -2.00000000
      17       0.00000000     0.00000000     0.00000000     0.00000000    -2.00000000
      18       0.00000000     0.00000000     0.00000000     0.00000000     0.00000000    -2.00000000

               Column  19     Column  20
      19      -2.00000000
      20       0.00000000    -2.00000000
    ==== End of matrix output ====
 The eigenvalues of E[2] reduced matrix

               Column   1     Column   2     Column   3     Column   4     Column   5     Column   6     Column   7     Column   8
       1       2.00000000     2.00000000     2.00000000     2.00000000     2.00000000    -2.00000000    -2.00000000    -2.00000000
       2       2.00000000     2.00000000     2.00000000     2.00000000     2.00000000    -2.00000000    -2.00000000    -2.00000000

               Column   9     Column  10
       1      -2.00000000    -2.00000000
       2      -2.00000000    -2.00000000
    ==== End of matrix output ====

 REDUCED EIGENVECTORS AFTER ORDERING:

               Column   1     Column   2     Column   3     Column   4     Column   5     Column   6     Column   7     Column   8
      11       1.00000000     0.00000000     0.00000000     0.00000000     0.00000000     0.00000000     0.00000000     0.00000000
      12       0.00000000     1.00000000     0.00000000     0.00000000     0.00000000     0.00000000     0.00000000     0.00000000
      13       0.00000000     0.00000000     1.00000000     0.00000000     0.00000000     0.00000000     0.00000000     0.00000000
      14       0.00000000     0.00000000     0.00000000     1.00000000     0.00000000     0.00000000     0.00000000     0.00000000
      15       0.00000000     0.00000000     0.00000000     0.00000000     1.00000000     0.00000000     0.00000000     0.00000000
      16       0.00000000     0.00000000     0.00000000     0.00000000     0.00000000     1.00000000     0.00000000     0.00000000
      17       0.00000000     0.00000000     0.00000000     0.00000000     0.00000000     0.00000000     1.00000000     0.00000000
      18       0.00000000     0.00000000     0.00000000     0.00000000     0.00000000     0.00000000     0.00000000     1.00000000

               Column   9     Column  10     Column  11     Column  12     Column  13     Column  14     Column  15     Column  16
       1       0.00000000     0.00000000     1.00000000     0.00000000     0.00000000     0.00000000     0.00000000     0.00000000
       2       0.00000000     0.00000000     0.00000000     1.00000000     0.00000000     0.00000000     0.00000000     0.00000000
       3       0.00000000     0.00000000     0.00000000     0.00000000     1.00000000     0.00000000     0.00000000     0.00000000
       4       0.00000000     0.00000000     0.00000000     0.00000000     0.00000000     1.00000000     0.00000000     0.00000000
       5       0.00000000     0.00000000     0.00000000     0.00000000     0.00000000     0.00000000     1.00000000     0.00000000
       6       0.00000000     0.00000000     0.00000000     0.00000000     0.00000000     0.00000000     0.00000000     1.00000000
      19       1.00000000     0.00000000     0.00000000     0.00000000     0.00000000     0.00000000     0.00000000     0.00000000
      20       0.00000000     1.00000000     0.00000000     0.00000000     0.00000000     0.00000000     0.00000000     0.00000000

               Column  17     Column  18     Column  19     Column  20
       7       1.00000000     0.00000000     0.00000000     0.00000000
       8       0.00000000     1.00000000     0.00000000     0.00000000
       9       0.00000000     0.00000000     1.00000000     0.00000000
      10       0.00000000     0.00000000     0.00000000     1.00000000
    ==== End of matrix output ====


 NUMBER OF EIGENVALUES WITH POSITIVE, ZERO, AND NEGATIVE METRIC:   20    0    0

 THE EIGENVALUES WITH POSITIVE METRIC:
      NUMBER      EIGENVALUE
         1     -2.00000000D+00
         2     -2.00000000D+00
         3     -2.00000000D+00
         4     -2.00000000D+00
         5     -2.00000000D+00
         6     -2.00000000D+00
         7     -2.00000000D+00
         8     -2.00000000D+00
         9     -2.00000000D+00
        10     -2.00000000D+00
        11      2.00000000D+00
        12      2.00000000D+00
        13      2.00000000D+00
        14      2.00000000D+00
        15      2.00000000D+00
        16      2.00000000D+00
        17      2.00000000D+00
        18      2.00000000D+00
        19      2.00000000D+00
        20      2.00000000D+00

 .ABCHK E2 AND S2 CONSTRUCTED : STOP

  --- SEVERE ERROR, PROGRAM WILL BE ABORTED ---
     Date and time (Linux)  : Wed Jun 15 18:50:55 2016
     Host name              : copper                                  

 Reason: RSPCTL: .ABCHK FINISHED

 >>>> Total CPU  time used in DALTON:   0.76 seconds
 >>>> Total wall time used in DALTON:   0.12 seconds


 QTRACE dump of internal trace stack

 ========================
      level    module
 ========================
          4    RSPCTL      
          3    RSPDRV      
          2    DALTON      
          1    DALTON main 
 ========================

