/home/eric/opt/apps/qchem/trunk_gcc_release_r20063_20160119_qints_r729/exe/qcprog.exe .qchem.h2o_sto3g_cis.in.24776.qcin.1 /tmp/qchem/qchem24776/

Process 0 of 1 is on copper - thread support 0
initial socket setup ...start
initial socket setup ...done 
now start server 0 ... 
                  Welcome to Q-Chem
     A Quantum Leap Into The Future Of Chemistry


 Q-Chem 4.3, Q-Chem, Inc., Pleasanton, CA (2015)

 Y. Shao,  Z. Gan,  E. Epifanovsky,  A. T. B. Gilbert,  M. Wormit,  
 J. Kussmann,  A. W. Lange,  A. Behn,  J. Deng,  X. Feng,  D. Ghosh,  
 M. Goldey,  P. R. Horn,  L. D. Jacobson,  I. Kaliman,  R. Z. Khaliullin,  
 T. Kus,  A. Landau,  J. Liu,  E. I. Proynov,  Y. M. Rhee,  R. M. Richard,  
 M. A. Rohrdanz,  R. P. Steele,  E. J. Sundstrom,  H. L. Woodcock III,  
 P. M. Zimmerman,  D. Zuev,  B. Albrecht,  E. Alguire,  B. Austin,  
 S. A. Baeppler,  G. J. O. Beran,  Y. A. Bernard,  E. Berquist,  
 K. Brandhorst,  K. B. Bravaya,  S. T. Brown,  D. Casanova,  C.-M. Chang,  
 Y. Chen,  S. H. Chien,  K. D. Closser,  D. L. Crittenden,  M. Diedenhofen,  
 R. A. DiStasio Jr.,  H. Do,  A. D. Dutoi,  R. G. Edgar,  P.-T. Fang,  
 S. Fatehi,  Q. Feng,  L. Fusti-Molnar,  A. Ghysels,  
 A. Golubeva-Zadorozhnaya,  J. Gomes,  A. Gunina,  M. W. D. Hanson-Heine,  
 P. H. P. Harbach,  A. W. Hauser,  E. G. Hohenstein,  Z. C. Holden,  K. Hui,  
 T.-C. Jagau,  H. Ji,  B. Kaduk,  K. Khistyaev,  Jaehoon Kim,  Jihan Kim,  
 R. A. King,  P. Klunzinger,  D. Kosenkov,  T. Kowalczyk,  C. M. Krauter,  
 K. U. Lao,  A. Laurent,  K. V. Lawler,  S. Lehtola,  S. V. Levchenko,  
 C. Y. Lin,  Y.-S. Lin,  F. Liu,  E. Livshits,  R. C. Lochan,  A. Luenser,  
 P. Manohar,  S. F. Manzer,  S.-P. Mao,  N. Mardirossian,  A. V. Marenich,  
 L. A. Martinez-Martinez,  S. A. Maurer,  N. J. Mayhall,  K. Nanda,  
 C. M. Oana,  R. Olivares-Amaya,  D. P. O'Neill,  J. A. Parkhill,  
 T. M. Perrine,  R. Peverati,  P. A. Pieniazek,  F. Plasser,  A. Prociuk,  
 D. R. Rehn,  E. Rosta,  N. J. Russ,  N. Sergueev,  S. M. Sharada,  
 S. Sharma,  D. W. Small,  A. Sodt,  T. Stauch,  T. Stein,  D. Stuck,  
 Y.-C. Su,  A. J. W. Thom,  T. Tsuchimochi,  L. Vogt,  O. Vydrov,  T. Wang,  
 M. A. Watson,  J. Wenzel,  A. White,  C. F. Williams,  V. Vanovschi,  
 S. Yeganeh,  S. R. Yost,  Z.-Q. You,  I. Y. Zhang,  X. Zhang,  Y. Zhao,  
 B. R. Brooks,  G. K. L. Chan,  D. M. Chipman,  C. J. Cramer,  
 W. A. Goddard III,  M. S. Gordon,  W. J. Hehre,  A. Klamt,  
 H. F. Schaefer III,  M. W. Schmidt,  C. D. Sherrill,  D. G. Truhlar,  
 A. Warshel,  X. Xu,  A. Aspuru-Guzik,  R. Baer,  A. T. Bell,  N. A. Besley,  
 J.-D. Chai,  A. Dreuw,  B. D. Dunietz,  T. R. Furlani,  S. R. Gwaltney,  
 C.-P. Hsu,  Y. Jung,  J. Kong,  D. S. Lambrecht,  W. Liang,  C. Ochsenfeld,  
 V. A. Rassolov,  L. V. Slipchenko,  J. E. Subotnik,  T. Van Voorhis,  
 J. M. Herbert,  A. I. Krylov,  P. M. W. Gill,  M. Head-Gordon

 Contributors to earlier versions of Q-Chem not listed above: 
 R. D. Adamson,  J. Baker,  E. F. C. Byrd,  A. K. Chakraborty,  C.-L. Cheng,  
 H. Dachsel,  R. J. Doerksen,  G. Hawkins,  A. Heyden,  S. Hirata,  
 G. Kedziora,  F. J. Keil,  C. Kelley,  P. P. Korambath,  W. Kurlancheek,  
 A. M. Lee,  M. S. Lee,  D. Liotard,  I. Lotan,  P. E. Maslen,  N. Nair,  
 D. Neuhauser,  R. Olson,  B. Peters,  J. Ritchie,  N. E. Schultz,  
 N. Shenvi,  A. C. Simmonett,  K. S. Thanthiriwatte,  Q. Wu,  W. Zhang

 Please cite Q-Chem as follows:
 Y. Shao et al., Mol. Phys. 113, 184-215 (2015)
 DOI: 10.1080/00268976.2014.952696

 Q-Chem 4.3.0 for Intel X86 EM64T Linux

 Parts of Q-Chem use Armadillo 5.200.1 (Boston Tea Smuggler).
 http://arma.sourceforge.net/

 Q-Chem begins on Fri Apr 15 16:34:54 2016  

copper
Host: 0

     Scratch files written to /tmp/qchem/qchem24776//
 Parallel job on  1  processors

Checking the input file for inconsistencies... 	...done.

--------------------------------------------------------------
User input:
--------------------------------------------------------------
$rem
 method hf
 basis sto-3g
 scf_convergence 10
 thresh 14
 scf_guess core
 input_bohr true
 symmetry false
 sym_ignore true
 cis_n_roots 10
 cis_singlets true
 cis_triplets true
$end

$molecule
 0 1
O   0.000000000000  -0.143225816552   0.000000000000
H   1.638036840407   1.136548822547  -0.000000000000
H  -1.638036840407   1.136548822547  -0.000000000000
$end
--------------------------------------------------------------
 ----------------------------------------------------------------
             Standard Nuclear Orientation (Bohr)
    I     Atom           X                Y                Z
 ----------------------------------------------------------------
    1      O       0.0000000000    -0.1432258166     0.0000000000
    2      H       1.6380368404     1.1365488225    -0.0000000000
    3      H      -1.6380368404     1.1365488225    -0.0000000000
 ----------------------------------------------------------------
 Nuclear Repulsion Energy =     8.0023670618 hartrees
 There are        5 alpha and        5 beta electrons
 Requested basis set is STO-3G
 There are 4 shells and 7 basis functions

 Total QAlloc Memory Limit   2000 MB
 Mega-Array Size        61 MB
 MEM_STATIC part        62 MB

                       Distance Matrix (Bohrs)
             O (  1)   H (  2)
   H (  2)  2.078699
   H (  3)  2.078699  3.276074

 tim1(1): 
   0.0000000000000000     
 tim1(2): 
   0.0000000000000000     
 A cutoff of  1.0D-14 yielded     10 shell pairs
 There are        34 function pairs

 -------------------------------------------------------
 OpenMP Integral Computing Module                       
 Release: version 1.0, May 2013, Q-Chem Inc. Pittsburgh 
 -------------------------------------------------------
 Integral Job Info:
 Integral job number is                      11
 Integral operator is                         1
 short-range coefficients                     0
 long-range coefficients              100000000
 Omega coefficients                           0
 if combine SR and LR in K                    0
 Integral screening is                        0
 Integral computing path is                   2
 max size of driver memory is            800000
 size of driver memory is                 45569
 size of scratch memory is               945100
 max col of scratch BK array                289
 max len of scratch array in speh3           22
 max len of scratch index in speh4            8
 max int batch size is                      520
 min int batch size is                       52
 fixed nKL is                                52
 max L of basis functions is                  1
 order of int derivative is                   0
 number of shells is                          4
 number of basis is                           7
 number of cartesian basis is                 7
 number of contracted shell pairs            10
 number of primitive shell pairs             90
 maxK2 (contraction) of shell pair            9
 max number of K2 of shell pair               1
 max number of CS2 of shell pair              6
 max number of PS2 of shell pair             54
 mem total for path MDJ                    6006
 -------------------------------------------------------
 Smallest overlap matrix eigenvalue = 4.34E-01

 Scale SEOQF with 1.000000e+00/1.000000e+00/1.000000e+00

 Standard Electronic Orientation quadrupole field applied
 Nucleus-field energy     =     0.0000000011 hartrees
 Guess MOs from core Hamiltonian diagonalization
 A restricted Hartree-Fock SCF calculation will be
 performed using Pulay DIIS extrapolation
 SCF converges when DIIS error is below 1.0E-10
 ---------------------------------------
  Cycle       Energy         DIIS Error
 ---------------------------------------
    1     -73.2857964200      2.41E-01
    2     -74.8281253791      1.02E-01
    3     -74.9387213449      1.46E-02
    4     -74.9418507007      3.47E-03
    5     -74.9420543246      1.05E-03
    6     -74.9420797999      8.74E-05
    7     -74.9420799279      5.90E-07
    8     -74.9420799279      1.69E-08
    9     -74.9420799279      1.08E-10
   10     -74.9420799279      7.53E-11 Convergence criterion met
 ---------------------------------------
 SCF time:  CPU 0.04 s  wall 0.12 s
 SCF   energy in the final basis set = -74.9420799279
 Total energy in the final basis set = -74.9420799279
 Direct RCIS calculation will be performed
 Triplet excitation energies requested
 Singlet excitation energies requested
 CIS energy converged when residual is below 10e- 6
 ---------------------------------------------------
 Iter    Rts Conv    Rts Left    Ttl Dev     Max Dev
 ---------------------------------------------------
   1        10           0      0.000000    0.000000    Roots Converged
 ---------------------------------------------------
 Triplets done: starting singlet calculation
 ---------------------------------------------------
 Iter    Rts Conv    Rts Left    Ttl Dev     Max Dev
 ---------------------------------------------------
   2        10           0      0.000000    0.000000    Roots Converged
 ---------------------------------------------------


 ---------------------------------------------------
               CIS Excitation Energies              
 ---------------------------------------------------

 Excited state   1: excitation energy (eV) =    7.8166
    Total energy for state   1:    -74.654824428981
    Multiplicity: Triplet 
    Trans. Mom.:  0.0000 X   0.0000 Y   0.0000 Z
    Strength   :     0.0000000000
    D(  5) --> V(  1) amplitude =  1.0000

 Excited state   2: excitation energy (eV) =    9.3723
    Total energy for state   2:    -74.597654932380
    Multiplicity: Triplet 
    Trans. Mom.:  0.0000 X   0.0000 Y   0.0000 Z
    Strength   :     0.0000000000
    D(  3) --> V(  2) amplitude =  0.3192
    D(  4) --> V(  1) amplitude =  0.9426

 Excited state   3: excitation energy (eV) =    9.6998
    Total energy for state   3:    -74.585618169926
    Multiplicity: Singlet 
    Trans. Mom.:  0.0000 X  -0.0000 Y   0.0993 Z
    Strength   :     0.0023412740
    D(  5) --> V(  1) amplitude =  1.0000

 Excited state   4: excitation energy (eV) =    9.9591
    Total energy for state   4:    -74.576090933603
    Multiplicity: Triplet 
    Trans. Mom.:  0.0000 X   0.0000 Y   0.0000 Z
    Strength   :     0.0000000000
    D(  5) --> V(  2) amplitude =  1.0000

 Excited state   5: excitation energy (eV) =   10.7353
    Total energy for state   5:    -74.547566129353
    Multiplicity: Triplet 
    Trans. Mom.:  0.0000 X   0.0000 Y   0.0000 Z
    Strength   :     0.0000000000
    D(  3) --> V(  1) amplitude =  0.6374
    D(  4) --> V(  2) amplitude =  0.7688

 Excited state   6: excitation energy (eV) =   11.3219
    Total energy for state   6:    -74.526008189842
    Multiplicity: Singlet 
    Trans. Mom.: -0.0000 X   0.0000 Y   0.0000 Z
    Strength   :     0.0000000000
    D(  5) --> V(  2) amplitude =  1.0000

 Excited state   7: excitation energy (eV) =   13.7588
    Total energy for state   7:    -74.436451641007
    Multiplicity: Singlet 
    Trans. Mom.:  0.0000 X  -0.4389 Y  -0.0000 Z
    Strength   :     0.0649262732
    D(  3) --> V(  2) amplitude = -0.3448
    D(  4) --> V(  1) amplitude =  0.9365

 Excited state   8: excitation energy (eV) =   13.9945
    Total energy for state   8:    -74.427789931439
    Multiplicity: Triplet 
    Trans. Mom.:  0.0000 X   0.0000 Y   0.0000 Z
    Strength   :     0.0000000000
    D(  3) --> V(  1) amplitude =  0.7609
    D(  4) --> V(  2) amplitude = -0.6386

 Excited state   9: excitation energy (eV) =   15.1075
    Total energy for state   9:    -74.386888042603
    Multiplicity: Singlet 
    Trans. Mom.: -0.2044 X  -0.0000 Y   0.0000 Z
    Strength   :     0.0154673554
    D(  3) --> V(  1) amplitude = -0.5527
    D(  4) --> V(  2) amplitude =  0.8334

 Excited state  10: excitation energy (eV) =   15.3215
    Total energy for state  10:    -74.379024164933
    Multiplicity: Triplet 
    Trans. Mom.:  0.0000 X   0.0000 Y   0.0000 Z
    Strength   :     0.0000000000
    D(  3) --> V(  2) amplitude =  0.9360
    D(  4) --> V(  1) amplitude = -0.3298

 Excited state  11: excitation energy (eV) =   17.8321
    Total energy for state  11:    -74.286761480124
    Multiplicity: Singlet 
    Trans. Mom.: -1.6928 X   0.0000 Y   0.0000 Z
    Strength   :     1.2519369094
    D(  3) --> V(  1) amplitude =  0.8325
    D(  4) --> V(  2) amplitude =  0.5521

 Excited state  12: excitation energy (eV) =   24.7657
    Total energy for state  12:    -74.031958239434
    Multiplicity: Singlet 
    Trans. Mom.: -0.0000 X  -1.1828 Y  -0.0000 Z
    Strength   :     0.8488068054
    D(  3) --> V(  2) amplitude =  0.9255
    D(  4) --> V(  1) amplitude =  0.3277

 Excited state  13: excitation energy (eV) =   30.1712
    Total energy for state  13:    -73.833308962817
    Multiplicity: Triplet 
    Trans. Mom.:  0.0000 X   0.0000 Y   0.0000 Z
    Strength   :     0.0000000000
    D(  2) --> V(  1) amplitude =  0.9876

 Excited state  14: excitation energy (eV) =   32.6563
    Total energy for state  14:    -73.741983795356
    Multiplicity: Triplet 
    Trans. Mom.:  0.0000 X   0.0000 Y   0.0000 Z
    Strength   :     0.0000000000
    D(  2) --> V(  2) amplitude =  0.9920

 Excited state  15: excitation energy (eV) =   35.3962
    Total energy for state  15:    -73.641294733755
    Multiplicity: Singlet 
    Trans. Mom.:  0.0000 X  -0.3264 Y   0.0000 Z
    Strength   :     0.0923718459
    D(  2) --> V(  1) amplitude =  0.9797

 Excited state  16: excitation energy (eV) =   36.0758
    Total energy for state  16:    -73.616317863215
    Multiplicity: Singlet 
    Trans. Mom.: -0.0327 X   0.0000 Y  -0.0000 Z
    Strength   :     0.0009454595
    D(  2) --> V(  2) amplitude =  0.9989

 Excited state  17: excitation energy (eV) =  543.0991
    Total energy for state  17:    -54.983553515784
    Multiplicity: Triplet 
    Trans. Mom.:  0.0000 X   0.0000 Y   0.0000 Z
    Strength   :     0.0000000000
    D(  1) --> V(  1) amplitude =  1.0000

 Excited state  18: excitation energy (eV) =  544.5265
    Total energy for state  18:    -54.931100507787
    Multiplicity: Singlet 
    Trans. Mom.: -0.0000 X   0.0656 Y   0.0000 Z
    Strength   :     0.0573552111
    D(  1) --> V(  1) amplitude =  1.0000

 Excited state  19: excitation energy (eV) =  544.5363
    Total energy for state  19:    -54.930737838454
    Multiplicity: Triplet 
    Trans. Mom.:  0.0000 X   0.0000 Y   0.0000 Z
    Strength   :     0.0000000000
    D(  1) --> V(  2) amplitude =  1.0000

 Excited state  20: excitation energy (eV) =  545.6027
    Total energy for state  20:    -54.891547983620
    Multiplicity: Singlet 
    Trans. Mom.:  0.0788 X  -0.0000 Y  -0.0000 Z
    Strength   :     0.0829225923
    D(  1) --> V(  2) amplitude =  1.0000

 ---------------------------------------------------
  Timing summary (seconds)
  CPU time          0.01s
  System time       0.00s
  Wall time         0.04s

 --------------------------------------------------------------

                    Orbital Energies (a.u.)
 --------------------------------------------------------------

 Alpha MOs
 -- Occupied --
-20.263  -1.210  -0.548  -0.437  -0.388
 -- Virtual --
  0.478   0.588
 --------------------------------------------------------------

          Ground-State Mulliken Net Atomic Charges

     Atom                 Charge (a.u.)
  ----------------------------------------
      1 O                    -0.253146
      2 H                     0.126573
      3 H                     0.126573
  ----------------------------------------
  Sum of atomic charges =     0.000000

 -----------------------------------------------------------------
                    Cartesian Multipole Moments
 -----------------------------------------------------------------
    Charge (ESU x 10^10)
                 0.0000
    Dipole Moment (Debye)
         X       0.0000      Y       1.5340      Z       0.0000
       Tot       1.5340
    Quadrupole Moments (Debye-Ang)
        XX      -4.3168     XY       0.0000     YY      -5.2054
        XZ      -0.0000     YZ       0.0000     ZZ      -6.2076
    Octopole Moments (Debye-Ang^2)
       XXX       0.0000    XXY       0.3916    XYY       0.0000
       YYY      -0.9572    XXZ      -0.0000    XYZ       0.0000
       YYZ      -0.0000    XZZ       0.0000    YZZ      -0.4476
       ZZZ      -0.0000
    Hexadecapole Moments (Debye-Ang^3)
      XXXX      -7.9263   XXXY       0.0000   XXYY      -1.9038
      XYYY       0.0000   YYYY      -5.8351   XXXZ       0.0000
      XXYZ      -0.0000   XYYZ       0.0000   YYYZ       0.0000
      XXZZ      -2.1047   XYZZ       0.0000   YYZZ      -1.5957
      XZZZ       0.0000   YZZZ       0.0000   ZZZZ      -3.3591
 -----------------------------------------------------------------
Archival summary:
1\1\copper\SP\HF\STO-3G\12\eric\FriApr1516:34:562016FriApr1516:34:562016\0\\#,HF,STO-3G,\\0,1\O\H,1,2.0787\H,1,2.0787,2,104\\HF=-74.9420799\\@

 Total job time:  1.53s(wall), 0.54s(cpu) 
 Fri Apr 15 16:34:56 2016

        *************************************************************
        *                                                           *
        *  Thank you very much for using Q-Chem.  Have a nice day.  *
        *                                                           *
        *************************************************************


0 sent ACK to 0 
now end server 0 ... 
