/home/eric/opt/apps/qchem/trunk_intel_release_r18436_20150617/exe/qcprog.exe .ch4_sto3g.qchem.in.19211.qcin.1 /home/eric/scratch/qchem/qchem19211/

                  Welcome to Q-Chem
     A Quantum Leap Into The Future Of Chemistry


 Q-Chem 4.3, Q-Chem, Inc., Pleasanton, CA (2015)

 Y. Shao,  Z. Gan,  E. Epifanovsky,  A. T. B. Gilbert,  M. Wormit,  
 J. Kussmann,  A. W. Lange,  A. Behn,  J. Deng,  X. Feng,  D. Ghosh,  
 M. Goldey,  P. R. Horn,  L. D. Jacobson,  I. Kaliman,  R. Z. Khaliullin,  
 T. Kus,  A. Landau,  J. Liu,  E. I. Proynov,  Y. M. Rhee,  R. M. Richard,  
 M. A. Rohrdanz,  R. P. Steele,  E. J. Sundstrom,  H. L. Woodcock III,  
 P. M. Zimmerman,  D. Zuev,  B. Albrecht,  E. Alguire,  B. Austin,  
 S. A. Baeppler,  G. J. O. Beran,  Y. A. Bernard,  E. Berquist,  
 K. Brandhorst,  K. B. Bravaya,  S. T. Brown,  D. Casanova,  C.-M. Chang,  
 Y. Chen,  S. H. Chien,  K. D. Closser,  D. L. Crittenden,  M. Diedenhofen,  
 R. A. DiStasio Jr.,  H. Do,  A. D. Dutoi,  R. G. Edgar,  P.-T. Fang,  
 S. Fatehi,  Q. Feng,  L. Fusti-Molnar,  A. Ghysels,  
 A. Golubeva-Zadorozhnaya,  J. Gomes,  A. Gunina,  M. W. D. Hanson-Heine,  
 P. H. P. Harbach,  A. W. Hauser,  E. G. Hohenstein,  Z. C. Holden,  K. Hui,  
 T.-C. Jagau,  H. Ji,  B. Kaduk,  K. Khistyaev,  Jaehoon Kim,  Jihan Kim,  
 R. A. King,  P. Klunzinger,  D. Kosenkov,  T. Kowalczyk,  C. M. Krauter,  
 K. U. Lao,  A. Laurent,  K. V. Lawler,  S. Lehtola,  S. V. Levchenko,  
 C. Y. Lin,  Y.-S. Lin,  F. Liu,  E. Livshits,  R. C. Lochan,  A. Luenser,  
 P. Manohar,  S. F. Manzer,  S.-P. Mao,  N. Mardirossian,  A. V. Marenich,  
 L. A. Martinez-Martinez,  S. A. Maurer,  N. J. Mayhall,  K. Nanda,  
 C. M. Oana,  R. Olivares-Amaya,  D. P. O'Neill,  J. A. Parkhill,  
 T. M. Perrine,  R. Peverati,  P. A. Pieniazek,  F. Plasser,  A. Prociuk,  
 D. R. Rehn,  E. Rosta,  N. J. Russ,  N. Sergueev,  S. M. Sharada,  
 S. Sharma,  D. W. Small,  A. Sodt,  T. Stauch,  T. Stein,  D. Stuck,  
 Y.-C. Su,  A. J. W. Thom,  T. Tsuchimochi,  L. Vogt,  O. Vydrov,  T. Wang,  
 M. A. Watson,  J. Wenzel,  A. White,  C. F. Williams,  V. Vanovschi,  
 S. Yeganeh,  S. R. Yost,  Z.-Q. You,  I. Y. Zhang,  X. Zhang,  Y. Zhao,  
 B. R. Brooks,  G. K. L. Chan,  D. M. Chipman,  C. J. Cramer,  
 W. A. Goddard III,  M. S. Gordon,  W. J. Hehre,  A. Klamt,  
 H. F. Schaefer III,  M. W. Schmidt,  C. D. Sherrill,  D. G. Truhlar,  
 A. Warshel,  X. Xu,  A. Aspuru-Guzik,  R. Baer,  A. T. Bell,  N. A. Besley,  
 J.-D. Chai,  A. Dreuw,  B. D. Dunietz,  T. R. Furlani,  S. R. Gwaltney,  
 C.-P. Hsu,  Y. Jung,  J. Kong,  D. S. Lambrecht,  W. Liang,  C. Ochsenfeld,  
 V. A. Rassolov,  L. V. Slipchenko,  J. E. Subotnik,  T. Van Voorhis,  
 J. M. Herbert,  A. I. Krylov,  P. M. W. Gill,  M. Head-Gordon

 Contributors to earlier versions of Q-Chem not listed above: 
 R. D. Adamson,  J. Baker,  E. F. C. Byrd,  A. K. Chakraborty,  C.-L. Cheng,  
 H. Dachsel,  R. J. Doerksen,  G. Hawkins,  A. Heyden,  S. Hirata,  
 G. Kedziora,  F. J. Keil,  C. Kelley,  P. P. Korambath,  W. Kurlancheek,  
 A. M. Lee,  M. S. Lee,  D. Liotard,  I. Lotan,  P. E. Maslen,  N. Nair,  
 D. Neuhauser,  R. Olson,  B. Peters,  J. Ritchie,  N. E. Schultz,  
 N. Shenvi,  A. C. Simmonett,  K. S. Thanthiriwatte,  Q. Wu,  W. Zhang

 Please cite Q-Chem as follows:
 Y. Shao et al., Mol. Phys. 113, 184-215 (2015)
 DOI: 10.1080/00268976.2014.952696

 Q-Chem 4.3.0 for Intel X86 EM64T Linux

 Parts of Q-Chem use Armadillo 5.200.1 (Boston Tea Smuggler).
 http://arma.sourceforge.net/

 Q-Chem begins on Tue Sep 22 22:47:14 2015  

Host: copper
0

     Scratch files written to /home/eric/scratch/qchem/qchem19211//
 Jun1715 |home|eric|opt|apps|qchem|trunk_RNUM -1

Checking the input file for inconsistencies... 	...done.

--------------------------------------------------------------
User input:
--------------------------------------------------------------
$rem
 method hf
 basis sto-3g
 scf_convergence 10
 thresh 14
 scf_guess core
 input_bohr true
 symmetry false
 sym_ignore true
$end

$molecule
 0 1
C  -0.000000000000   0.000000000000   0.000000000000
H   1.183771681898  -1.183771681898  -1.183771681898
H   1.183771681898   1.183771681898   1.183771681898
H  -1.183771681898   1.183771681898  -1.183771681898
H  -1.183771681898  -1.183771681898   1.183771681898
$end
--------------------------------------------------------------
 ----------------------------------------------------------------
             Standard Nuclear Orientation (Bohr)
    I     Atom           X                Y                Z
 ----------------------------------------------------------------
    1      C       0.0000000000     0.0000000000     0.0000000000
    2      H       1.1837716819    -1.1837716819    -1.1837716819
    3      H       1.1837716819     1.1837716819     1.1837716819
    4      H      -1.1837716819     1.1837716819    -1.1837716819
    5      H      -1.1837716819    -1.1837716819     1.1837716819
 ----------------------------------------------------------------
 Nuclear Repulsion Energy =    13.4973044620 hartrees
 There are        5 alpha and        5 beta electrons
 Requested basis set is STO-3G
 There are 6 shells and 9 basis functions

Total QAlloc Memory Limit   2000 MB
Mega-Array Size        61 MB
MEM_STATIC part        62 MB

                       Distance Matrix (Bohrs)
             C (  1)   H (  2)   H (  3)   H (  4)
   H (  2)  2.050353
   H (  3)  2.050353  3.348212
   H (  4)  2.050353  3.348212  3.348212
   H (  5)  2.050353  3.348212  3.348212  3.348212
 
 A cutoff of  1.0D-14 yielded     21 shell pairs
 There are        51 function pairs
 
 -------------------------------------------------------
 OpenMP Integral Computing Module                       
 Release: version 1.0, May 2013, Q-Chem Inc. Pittsburgh 
 -------------------------------------------------------
 Integral Job Info:
 Integral job number is                      11
 Integral operator is                         1
 short-range coefficients                     0
 long-range coefficients              100000000
 Omega coefficients                           0
 if combine SR and LR in K                    0
 Integral screening is                        0
 Integral computing path is                   2
 max size of driver memory is            800000
 size of driver memory is                 45569
 size of scratch memory is               945100
 max col of scratch BK array                289
 max len of scratch array in speh3           22
 max len of scratch index in speh4            8
 max int batch size is                      520
 min int batch size is                       52
 fixed nKL is                                52
 max L of basis functions is                  1
 order of int derivative is                   0
 number of shells is                          6
 number of basis is                           9
 number of cartesian basis is                 9
 number of contracted shell pairs            21
 number of primitive shell pairs            189
 maxK2 (contraction) of shell pair            9
 max number of K2 of shell pair               1
 max number of CS2 of shell pair             15
 max number of PS2 of shell pair            135
 mem total for path MDJ                    6105
 -------------------------------------------------------
 Smallest overlap matrix eigenvalue = 2.18E-01

  Scale SEOQF with 1.000000e+00/1.000000e+00/1.000000e+00

 Standard Electronic Orientation quadrupole field applied
 Guess MOs from core Hamiltonian diagonalization
 A restricted Hartree-Fock SCF calculation will be
 performed using Pulay DIIS extrapolation
 SCF converges when DIIS error is below 1.0E-10
 ---------------------------------------
  Cycle       Energy         DIIS Error
 ---------------------------------------
    1     -36.0834485732      3.37E-01
    2     -39.5645134191      1.17E-01
    3     -39.7256896228      1.03E-02
    4     -39.7268384163      1.08E-03
    5     -39.7268500082      1.59E-04
    6     -39.7268503163      1.83E-06
    7     -39.7268503164      8.82E-07
    8     -39.7268503164      1.43E-07
    9     -39.7268503164      6.60E-09
   10     -39.7268503164      8.13E-10
   11     -39.7268503164      6.42E-15 Convergence criterion met
 ---------------------------------------
 SCF time:  CPU 0.02 s  wall 0.02 s
 SCF   energy in the final basis set = -39.7268503164
 Total energy in the final basis set = -39.7268503164
 Analysis of SCF Wavefunction
 
 --------------------------------------------------------------
 
                    Orbital Energies (a.u.)
 --------------------------------------------------------------
 
 Alpha MOs
 -- Occupied --
-11.030  -0.911  -0.520  -0.520  -0.520
 -- Virtual --
  0.717   0.717   0.717   0.758
 --------------------------------------------------------------
 
          Ground-State Mulliken Net Atomic Charges

     Atom                 Charge (a.u.)
  ----------------------------------------
      1 C                    -0.260431
      2 H                     0.065108
      3 H                     0.065108
      4 H                     0.065108
      5 H                     0.065108
  ----------------------------------------
  Sum of atomic charges =    -0.000000

 -----------------------------------------------------------------
                    Cartesian Multipole Moments
 -----------------------------------------------------------------
    Charge (ESU x 10^10)
                -0.0000
    Dipole Moment (Debye)
         X      -0.0000      Y       0.0000      Z       0.0000
       Tot       0.0000
    Quadrupole Moments (Debye-Ang)
        XX      -7.8409     XY       0.0000     YY      -7.8409
        XZ       0.0000     YZ       0.0000     ZZ      -7.8409
    Octopole Moments (Debye-Ang^2)
       XXX       0.0000    XXY       0.0000    XYY      -0.0000
       YYY       0.0000    XXZ       0.0000    XYZ       0.5789
       YYZ       0.0000    XZZ      -0.0000    YZZ       0.0000
       ZZZ       0.0000
    Hexadecapole Moments (Debye-Ang^3)
      XXXX     -13.7205   XXXY       0.0000   XXYY      -4.1938
      XYYY       0.0000   YYYY     -13.7205   XXXZ       0.0000
      XXYZ      -0.0000   XYYZ       0.0000   YYYZ      -0.0000
      XXZZ      -4.1938   XYZZ       0.0000   YYZZ      -4.1938
      XZZZ       0.0000   YZZZ      -0.0000   ZZZZ     -13.7205
 -----------------------------------------------------------------
Archival summary:
1\1\copper\SP\HF\STO-3G\14\eric\TueSep2222:47:142015TueSep2222:47:142015\0\\#,HF,STO-3G,\\0,1\C\H,1,2.05035\H,1,2.05035,2,109.471\H,1,2.05035,2,109.471,3,-120,0\H,1,2.05035,2,109.471,3,120,0\\HF=-39.7268503\\@

 Total job time:  0.36s(wall), 0.33s(cpu) 
 Tue Sep 22 22:47:14 2015

        *************************************************************
        *                                                           *
        *  Thank you very much for using Q-Chem.  Have a nice day.  *
        *                                                           *
        *************************************************************


